
     Program PWSCF v.6.6 starts on 17Dec2024 at 13:30:44 

     This program is part of the open-source Quantum ESPRESSO suite
     for quantum simulation of materials; please cite
         "P. Giannozzi et al., J. Phys.:Condens. Matter 21 395502 (2009);
         "P. Giannozzi et al., J. Phys.:Condens. Matter 29 465901 (2017);
          URL http://www.quantum-espresso.org", 
     in publications or presentations arising from this work. More details at
     http://www.quantum-espresso.org/quote

     Parallel version (MPI), running on    20 processors

     MPI processes distributed on     1 nodes
     R & G space division:  proc/nbgrp/npool/nimage =      20
     Fft bands division:     nmany     =       1
     Reading input from MoS2.in

     Current dimensions of program PWSCF are:
     Max number of different atomic species (ntypx) = 10
     Max number of k-points (npk) =  40000
     Max angular momentum in pseudopotentials (lmaxx) =  3

     Subspace diagonalization in iterative solution of the eigenvalue problem:
     a serial algorithm will be used

     Message from routine setup:
     using ibrav=0 with symmetry is DISCOURAGED, use correct ibrav instead
 
     Parallelization info
     --------------------
     sticks:   dense  smooth     PW     G-vecs:    dense   smooth      PW
     Min          50      19      6                 5376     1345     230
     Max          51      20      7                 5395     1358     245
     Sum        1003     397    121               107639    27101    4653
 


     bravais-lattice index     =            0
     lattice parameter (alat)  =       6.0325  a.u.
     unit-cell volume          =     796.7434 (a.u.)^3
     number of atoms/cell      =            6
     number of atomic types    =            2
     number of electrons       =        52.00
     number of Kohn-Sham states=           31
     kinetic-energy cutoff     =      40.0000  Ry
     charge density cutoff     =     400.0000  Ry
     convergence threshold     =      1.0E-08
     mixing beta               =       0.7000
     number of iterations used =            8  plain     mixing
     Exchange-correlation=  SLA  PW   PBX  PBC
                           (   1   4   3   4   0   0   0)
     nstep                     =          100


     celldm(1)=   6.032455  celldm(2)=   0.000000  celldm(3)=   0.000000
     celldm(4)=   0.000000  celldm(5)=   0.000000  celldm(6)=   0.000000

     crystal axes: (cart. coord. in units of alat)
               a(1) = (   0.500000  -0.866025   0.000000 )  
               a(2) = (   0.500000   0.866025   0.000000 )  
               a(3) = (   0.000000   0.000000   4.190882 )  

     reciprocal axes: (cart. coord. in units 2 pi/alat)
               b(1) = (  1.000000 -0.577350  0.000000 )  
               b(2) = (  1.000000  0.577350  0.000000 )  
               b(3) = (  0.000000  0.000000  0.238613 )  


     PseudoPot. # 1 for Mo read from file:
     /home/rdm323/Workshop/ECMS_Course/MoS2/pseudoPotentials/Mo_ONCV_PBE-1.0.oncvpsp.upf
     MD5 check sum: 1b5d28e075c9ccadda658a603575cd1f
     Pseudo is Norm-conserving, Zval = 14.0
     Generated using ONCVPSP code by D. R. Hamann
     Using radial grid of 1526 points,  6 beta functions with: 
                l(1) =   0
                l(2) =   0
                l(3) =   1
                l(4) =   1
                l(5) =   2
                l(6) =   2

     PseudoPot. # 2 for S  read from file:
     /home/rdm323/Workshop/ECMS_Course/MoS2/pseudoPotentials/s_pbe_v1.4.uspp.F.UPF
     MD5 check sum: 88d86576ff6df21479756cfb9bdac1df
     Pseudo is Ultrasoft + core correction, Zval =  6.0
     Generated by new atomic code, or converted to UPF format
     Using radial grid of  907 points,  6 beta functions with: 
                l(1) =   0
                l(2) =   0
                l(3) =   1
                l(4) =   1
                l(5) =   2
                l(6) =   2
     Q(r) pseudized with  8 coefficients,  rinner =    1.300   1.300   1.300
                                                       1.300   1.300

     atomic species   valence    mass     pseudopotential
        Mo            14.00    95.95000     Mo( 1.00)
        S              6.00    32.06000     S ( 1.00)

     12 Sym. Ops., with inversion, found (10 have fractional translation)



   Cartesian axes

     site n.     atom                  positions (alat units)
         1           Mo  tau(   1) = (   0.3333333   0.2886751   1.0477206  )
         2           Mo  tau(   2) = (   0.8333333   0.5773503   3.1431619  )
         3           S   tau(   3) = (   0.3333333   0.2886751   2.6541958  )
         4           S   tau(   4) = (   0.8333333   0.5773503   1.5366867  )
         5           S   tau(   5) = (   0.3333333   0.2886751   3.6319675  )
         6           S   tau(   6) = (   0.8333333   0.5773503   0.5589150  )

     number of k points=     7  Gaussian smearing, width (Ry)=  0.0100
                       cart. coord. in units 2pi/alat
        k(    1) = (   0.0000000   0.0000000   0.0000000), wk =   0.0555556
        k(    2) = (   0.1666667   0.0962250   0.0000000), wk =   0.3333333
        k(    3) = (   0.3333333   0.1924501   0.0000000), wk =   0.3333333
        k(    4) = (  -0.5000000  -0.2886751   0.0000000), wk =   0.1666667
        k(    5) = (   0.3333333   0.0000000   0.0000000), wk =   0.3333333
        k(    6) = (   0.5000000   0.0962250   0.0000000), wk =   0.6666667
        k(    7) = (   0.6666667   0.0000000   0.0000000), wk =   0.1111111

     Dense  grid:   107639 G-vectors     FFT dimensions: (  48,  48, 162)

     Smooth grid:    27101 G-vectors     FFT dimensions: (  30,  30, 108)

     Estimated max dynamical RAM per process >      27.64 MB

     Estimated total dynamical RAM >     552.80 MB

     Initial potential from superposition of free atoms

     starting charge   51.99788, renormalised to   52.00000
     Starting wfcs are   36 randomized atomic wfcs

     total cpu time spent up to now is        0.4 secs

     Self-consistent Calculation

     iteration #  1     ecut=    40.00 Ry     beta= 0.70
     Davidson diagonalization with overlap
     ethr =  1.00E-02,  avg # of iterations =  2.1

     Threshold (ethr) on eigenvalues was too large:
     Diagonalizing with lowered threshold

     Davidson diagonalization with overlap
     ethr =  3.10E-04,  avg # of iterations =  2.1

     total cpu time spent up to now is        0.7 secs

     total energy              =    -371.00228836 Ry
     estimated scf accuracy    <       0.20446925 Ry

     iteration #  2     ecut=    40.00 Ry     beta= 0.70
     Davidson diagonalization with overlap
     ethr =  3.93E-04,  avg # of iterations =  3.9

     total cpu time spent up to now is        1.1 secs

     total energy              =    -370.96734627 Ry
     estimated scf accuracy    <       0.42254639 Ry

     iteration #  3     ecut=    40.00 Ry     beta= 0.70
     Davidson diagonalization with overlap
     ethr =  3.93E-04,  avg # of iterations =  4.9

     total cpu time spent up to now is        1.3 secs

     total energy              =    -371.04751058 Ry
     estimated scf accuracy    <       0.17975044 Ry

     iteration #  4     ecut=    40.00 Ry     beta= 0.70
     Davidson diagonalization with overlap
     ethr =  3.46E-04,  avg # of iterations =  2.1

     total cpu time spent up to now is        1.4 secs

     total energy              =    -371.07223957 Ry
     estimated scf accuracy    <       0.00125756 Ry

     iteration #  5     ecut=    40.00 Ry     beta= 0.70
     Davidson diagonalization with overlap
     c_bands:  1 eigenvalues not converged
     ethr =  2.42E-06,  avg # of iterations =  8.9

     total cpu time spent up to now is        1.7 secs

     total energy              =    -371.07373688 Ry
     estimated scf accuracy    <       0.00671997 Ry

     iteration #  6     ecut=    40.00 Ry     beta= 0.70
     Davidson diagonalization with overlap
     ethr =  2.42E-06,  avg # of iterations =  4.7

     total cpu time spent up to now is        1.8 secs

     total energy              =    -371.07359946 Ry
     estimated scf accuracy    <       0.00269978 Ry

     iteration #  7     ecut=    40.00 Ry     beta= 0.70
     Davidson diagonalization with overlap
     ethr =  2.42E-06,  avg # of iterations =  2.1

     total cpu time spent up to now is        2.0 secs

     total energy              =    -371.07377558 Ry
     estimated scf accuracy    <       0.00017562 Ry

     iteration #  8     ecut=    40.00 Ry     beta= 0.70
     Davidson diagonalization with overlap
     ethr =  3.38E-07,  avg # of iterations =  4.9

     total cpu time spent up to now is        2.1 secs

     total energy              =    -371.07382575 Ry
     estimated scf accuracy    <       0.00002194 Ry

     iteration #  9     ecut=    40.00 Ry     beta= 0.70
     Davidson diagonalization with overlap
     ethr =  4.22E-08,  avg # of iterations =  2.0

     total cpu time spent up to now is        2.3 secs

     total energy              =    -371.07382812 Ry
     estimated scf accuracy    <       0.00000142 Ry

     iteration # 10     ecut=    40.00 Ry     beta= 0.70
     Davidson diagonalization with overlap
     ethr =  2.73E-09,  avg # of iterations =  5.3

     total cpu time spent up to now is        2.5 secs

     total energy              =    -371.07382896 Ry
     estimated scf accuracy    <       0.00000050 Ry

     iteration # 11     ecut=    40.00 Ry     beta= 0.70
     Davidson diagonalization with overlap
     ethr =  9.57E-10,  avg # of iterations =  1.4

     total cpu time spent up to now is        2.6 secs

     total energy              =    -371.07382895 Ry
     estimated scf accuracy    <       0.00000015 Ry

     iteration # 12     ecut=    40.00 Ry     beta= 0.70
     Davidson diagonalization with overlap
     ethr =  2.85E-10,  avg # of iterations =  2.3

     total cpu time spent up to now is        2.7 secs

     End of self-consistent calculation

          k = 0.0000 0.0000 0.0000 (  3339 PWs)   bands (ev):

   -52.0820 -52.0820 -26.2208 -26.2208 -26.0269 -26.0269 -26.0269 -26.0269
    -5.3105  -5.2214  -4.0391  -3.8853   2.9606   3.4492   6.1677   6.1677
     6.1713   6.1713   6.4501   7.2685   7.2685   7.2812   7.2812   7.7583
     8.4974   9.2339  11.5307  11.5308  11.5398  11.5398  11.7560

          k = 0.1667 0.0962 0.0000 (  3393 PWs)   bands (ev):

   -52.0731 -52.0731 -26.2028 -26.2028 -26.1187 -26.1187 -26.0478 -26.0478
    -4.9214  -4.8354  -3.8717  -3.7370   3.3763   3.8442   5.4144   5.4396
     5.6489   6.0917   6.5663   6.5765   6.7246   6.7420   7.4836   8.0644
     8.3751   8.6731  10.9383  11.2836  11.3653  11.3697  11.4377

          k = 0.3333 0.1925 0.0000 (  3412 PWs)   bands (ev):

   -52.0551 -52.0551 -26.2984 -26.2984 -26.1666 -26.1666 -26.0895 -26.0895
    -4.0149  -3.9476  -3.4865  -3.4037   3.4931   3.6590   4.5457   4.7294
     4.7643   5.0441   5.9350   5.9572   7.0319   7.3571   7.3870   7.4226
     7.7768   7.8956  10.9177  10.9567  11.0103  11.3813  11.9533

          k =-0.5000-0.2887 0.0000 (  3384 PWs)   bands (ev):

   -52.0461 -52.0461 -26.3864 -26.3864 -26.1483 -26.1483 -26.1102 -26.1102
    -3.4491  -3.4152  -3.2518  -3.2200   3.0041   3.1176   3.9963   4.0889
     4.6027   4.8788   5.6198   5.6434   6.8939   6.9810   7.7667   7.8284
     8.1413   8.1801  10.9890  11.0057  11.4464  11.5764  12.4055

          k = 0.3333 0.0000 0.0000 (  3376 PWs)   bands (ev):

   -52.0596 -52.0596 -26.2370 -26.2370 -26.1757 -26.1756 -26.0965 -26.0965
    -4.2657  -4.1906  -3.5881  -3.4885   3.7394   4.0119   4.9194   5.0514
     5.0530   5.1957   5.4968   5.7730   6.8150   6.8219   7.6603   7.8697
     8.0086   8.0138  10.4930  10.9511  11.1684  11.2946  11.4349

          k = 0.5000 0.0962 0.0000 (  3423 PWs)   bands (ev):

   -52.0461 -52.0461 -26.3415 -26.3415 -26.1568 -26.1568 -26.1484 -26.1484
    -3.4727  -3.4317  -3.2416  -3.1982   3.4620   3.5688   3.9257   3.9488
     4.8621   5.0859   5.4873   5.7122   6.3932   6.4879   7.0374   7.1659
     8.2642   8.3165  10.8624  11.0799  11.4735  11.6397  11.9325

          k = 0.6667 0.0000 0.0000 (  3450 PWs)   bands (ev):

   -52.0416 -52.0416 -26.2981 -26.2981 -26.2563 -26.2563 -26.1393 -26.1393
    -3.1722  -3.1722  -3.0811  -3.0811   3.3962   3.4527   4.2269   4.2269
     4.7061   4.8012   5.2458   5.2458   5.9033   5.9033   6.6899   6.6899
     8.7372   8.8026  10.4275  10.4275  11.6065  12.1114  12.2772

     the Fermi energy is     9.8198 ev

!    total energy              =    -371.07382898 Ry
     estimated scf accuracy    <          5.3E-09 Ry
     smearing contrib. (-TS)   =      -0.00000000 Ry
     internal energy E=F+TS    =    -371.07382898 Ry

     The total energy is F=E-TS. E is the sum of the following terms:
     one-electron contribution =    -231.85696294 Ry
     hartree contribution      =     134.50114295 Ry
     xc contribution           =     -65.11370619 Ry
     ewald contribution        =    -208.60430280 Ry

     convergence has been achieved in  12 iterations

     Forces acting on atoms (cartesian axes, Ry/au):

     atom    1 type  1   force =    -0.00000000    0.00000000    0.00031983
     atom    2 type  1   force =    -0.00000000   -0.00000000   -0.00031983
     atom    3 type  2   force =     0.00000000    0.00000000    0.00111062
     atom    4 type  2   force =     0.00000000    0.00000000   -0.00111062
     atom    5 type  2   force =    -0.00000000    0.00000000   -0.00081004
     atom    6 type  2   force =     0.00000000   -0.00000000    0.00081004

     Total force =     0.001996     Total SCF correction =     0.000504
     SCF correction compared to forces is large: reduce conv_thr to get better values


     Computing stress (Cartesian axis) and pressure

          total   stress  (Ry/bohr**3)                   (kbar)     P=       -2.23
  -0.00003703   0.00000000  -0.00000000           -5.45        0.00       -0.00
   0.00000000  -0.00003703  -0.00000000            0.00       -5.45       -0.00
   0.00000000  -0.00000000   0.00002854            0.00       -0.00        4.20


     BFGS Geometry Optimization

     number of scf cycles    =   1
     number of bfgs steps    =   0

     enthalpy new            =    -371.0738289790 Ry

     new trust radius        =       0.0052258673 bohr
     new conv_thr            =       0.0000000100 Ry

     new unit-cell volume =    795.83641 a.u.^3 (   117.93079 Ang^3 )
     density =      4.50777 g/cm^3

CELL_PARAMETERS (angstrom)
   1.594641436  -2.761999984   0.000000000
   1.594641436   2.761999984   0.000000000
  -0.000000000  -0.000000000  13.387839392

ATOMIC_POSITIONS (angstrom)
Mo            1.0630942843        0.9206666614        3.3471292138
Mo            2.6577357108        1.8413333228       10.0407101780
S             1.0630942843        0.9206666614        8.4794580319
S             2.6577357108        1.8413333228        4.9083813600
S             1.0630942843        0.9206666614       11.6019478052
S             2.6577357108        1.8413333228        1.7858915867



     Writing output data file ./MoS2.save/
     NEW-OLD atomic charge density approx. for the potential
     extrapolated charge   51.94074, renormalised to   52.00000

     total cpu time spent up to now is        3.1 secs

     Self-consistent Calculation

     iteration #  1     ecut=    40.00 Ry     beta= 0.70
     Davidson diagonalization with overlap
     ethr =  1.00E-06,  avg # of iterations =  6.0

     total cpu time spent up to now is        3.3 secs

     total energy              =    -371.06949845 Ry
     estimated scf accuracy    <       0.00431873 Ry

     iteration #  2     ecut=    40.00 Ry     beta= 0.70
     Davidson diagonalization with overlap
     ethr =  8.31E-06,  avg # of iterations =  6.0

     total cpu time spent up to now is        3.5 secs

     total energy              =    -371.06730655 Ry
     estimated scf accuracy    <       0.08638218 Ry

     iteration #  3     ecut=    40.00 Ry     beta= 0.70
     Davidson diagonalization with overlap
     ethr =  8.31E-06,  avg # of iterations =  5.0

     total cpu time spent up to now is        3.7 secs

     total energy              =    -371.07386986 Ry
     estimated scf accuracy    <       0.00375507 Ry

     iteration #  4     ecut=    40.00 Ry     beta= 0.70
     Davidson diagonalization with overlap
     ethr =  7.22E-06,  avg # of iterations =  1.0

     total cpu time spent up to now is        3.8 secs

     total energy              =    -371.07389785 Ry
     estimated scf accuracy    <       0.00165665 Ry

     iteration #  5     ecut=    40.00 Ry     beta= 0.70
     Davidson diagonalization with overlap
     ethr =  3.19E-06,  avg # of iterations =  1.1

     total cpu time spent up to now is        3.9 secs

     total energy              =    -371.07388051 Ry
     estimated scf accuracy    <       0.00109633 Ry

     iteration #  6     ecut=    40.00 Ry     beta= 0.70
     Davidson diagonalization with overlap
     ethr =  2.11E-06,  avg # of iterations =  1.4

     total cpu time spent up to now is        4.1 secs

     total energy              =    -371.07387082 Ry
     estimated scf accuracy    <       0.00065662 Ry

     iteration #  7     ecut=    40.00 Ry     beta= 0.70
     Davidson diagonalization with overlap
     ethr =  1.26E-06,  avg # of iterations =  2.6

     total cpu time spent up to now is        4.2 secs

     total energy              =    -371.07387722 Ry
     estimated scf accuracy    <       0.00032187 Ry

     iteration #  8     ecut=    40.00 Ry     beta= 0.70
     Davidson diagonalization with overlap
     ethr =  6.19E-07,  avg # of iterations =  3.0

     total cpu time spent up to now is        4.4 secs

     total energy              =    -371.07389477 Ry
     estimated scf accuracy    <       0.00012115 Ry

     iteration #  9     ecut=    40.00 Ry     beta= 0.70
     Davidson diagonalization with overlap
     ethr =  2.33E-07,  avg # of iterations =  2.3

     total cpu time spent up to now is        4.5 secs

     total energy              =    -371.07390122 Ry
     estimated scf accuracy    <       0.00008613 Ry

     iteration # 10     ecut=    40.00 Ry     beta= 0.70
     Davidson diagonalization with overlap
     ethr =  1.66E-07,  avg # of iterations =  1.0

     total cpu time spent up to now is        4.6 secs

     total energy              =    -371.07385486 Ry
     estimated scf accuracy    <       0.00008855 Ry

     iteration # 11     ecut=    40.00 Ry     beta= 0.70
     Davidson diagonalization with overlap
     ethr =  1.66E-07,  avg # of iterations =  4.7

     total cpu time spent up to now is        4.8 secs

     total energy              =    -371.07391348 Ry
     estimated scf accuracy    <       0.00018369 Ry

     iteration # 12     ecut=    40.00 Ry     beta= 0.70
     Davidson diagonalization with overlap
     ethr =  1.66E-07,  avg # of iterations =  1.0

     total cpu time spent up to now is        4.9 secs

     total energy              =    -371.07384640 Ry
     estimated scf accuracy    <       0.00015370 Ry

     iteration # 13     ecut=    40.00 Ry     beta= 0.70
     Davidson diagonalization with overlap
     ethr =  1.66E-07,  avg # of iterations =  4.0

     total cpu time spent up to now is        5.1 secs

     total energy              =    -371.07389711 Ry
     estimated scf accuracy    <       0.00007293 Ry

     iteration # 14     ecut=    40.00 Ry     beta= 0.70
     Davidson diagonalization with overlap
     ethr =  1.40E-07,  avg # of iterations =  1.0

     total cpu time spent up to now is        5.2 secs

     total energy              =    -371.07389278 Ry
     estimated scf accuracy    <       0.00004381 Ry

     iteration # 15     ecut=    40.00 Ry     beta= 0.70
     Davidson diagonalization with overlap
     ethr =  8.43E-08,  avg # of iterations =  1.1

     total cpu time spent up to now is        5.3 secs

     total energy              =    -371.07388942 Ry
     estimated scf accuracy    <       0.00001808 Ry

     iteration # 16     ecut=    40.00 Ry     beta= 0.70
     Davidson diagonalization with overlap
     ethr =  3.48E-08,  avg # of iterations =  3.4

     total cpu time spent up to now is        5.5 secs

     total energy              =    -371.07389183 Ry
     estimated scf accuracy    <       0.00000020 Ry

     iteration # 17     ecut=    40.00 Ry     beta= 0.70
     Davidson diagonalization with overlap
     ethr =  3.83E-10,  avg # of iterations =  4.6

     total cpu time spent up to now is        5.6 secs

     total energy              =    -371.07389197 Ry
     estimated scf accuracy    <       0.00000017 Ry

     iteration # 18     ecut=    40.00 Ry     beta= 0.70
     Davidson diagonalization with overlap
     ethr =  3.23E-10,  avg # of iterations =  1.0

     total cpu time spent up to now is        5.8 secs

     total energy              =    -371.07389198 Ry
     estimated scf accuracy    <       0.00000016 Ry

     iteration # 19     ecut=    40.00 Ry     beta= 0.70
     Davidson diagonalization with overlap
     ethr =  3.02E-10,  avg # of iterations =  1.4

     total cpu time spent up to now is        5.9 secs

     total energy              =    -371.07389196 Ry
     estimated scf accuracy    <       0.00000024 Ry

     iteration # 20     ecut=    40.00 Ry     beta= 0.70
     Davidson diagonalization with overlap
     ethr =  3.02E-10,  avg # of iterations =  1.0

     total cpu time spent up to now is        6.0 secs

     total energy              =    -371.07389193 Ry
     estimated scf accuracy    <       0.00000015 Ry

     iteration # 21     ecut=    40.00 Ry     beta= 0.70
     Davidson diagonalization with overlap
     ethr =  2.87E-10,  avg # of iterations =  2.1

     total cpu time spent up to now is        6.1 secs

     End of self-consistent calculation

          k = 0.0000 0.0000 0.0000 (  3339 PWs)   bands (ev):

   -52.0628 -52.0628 -26.2038 -26.2038 -26.0065 -26.0065 -26.0065 -26.0065
    -5.3028  -5.2143  -4.0313  -3.8785   2.9695   3.4554   6.1872   6.1872
     6.1907   6.1907   6.4587   7.2897   7.2897   7.3022   7.3022   7.7623
     8.5042   9.2416  11.5540  11.5540  11.5631  11.5631  11.7782

          k = 0.1668 0.0963 0.0000 (  3393 PWs)   bands (ev):

   -52.0537 -52.0537 -26.1856 -26.1856 -26.0992 -26.0992 -26.0276 -26.0276
    -4.9122  -4.8268  -3.8630  -3.7292   3.3867   3.8519   5.4314   5.4565
     5.6595   6.1033   6.5873   6.5974   6.7439   6.7611   7.4987   8.0757
     8.3843   8.6845  10.9547  11.3058  11.3850  11.3866  11.4584

          k = 0.3336 0.1926 0.0000 (  3412 PWs)   bands (ev):

   -52.0355 -52.0355 -26.2806 -26.2806 -26.1490 -26.1490 -26.0697 -26.0697
    -4.0015  -3.9346  -3.4757  -3.3935   3.5030   3.6678   4.5538   4.7371
     4.7785   5.0567   5.9520   5.9739   7.0422   7.3664   7.4103   7.4455
     7.7887   7.9074  10.9348  10.9795  11.0327  11.3987  11.9754

          k =-0.5005-0.2889-0.0000 (  3384 PWs)   bands (ev):

   -52.0264 -52.0264 -26.3694 -26.3694 -26.1306 -26.1306 -26.0906 -26.0906
    -3.4326  -3.3989  -3.2397  -3.2082   3.0112   3.1238   4.0023   4.0944
     4.6144   4.8884   5.6359   5.6593   6.9029   6.9893   7.7899   7.8511
     8.1559   8.1933  11.0154  11.0319  11.4716  11.6027  12.4263

          k = 0.3336-0.0000 0.0000 (  3376 PWs)   bands (ev):

   -52.0401 -52.0401 -26.2186 -26.2186 -26.1582 -26.1581 -26.0768 -26.0768
    -4.2536  -4.1789  -3.5779  -3.4789   3.7508   4.0216   4.9344   5.0641
     5.0663   5.2076   5.5090   5.7833   6.8342   6.8406   7.6747   7.8834
     8.0220   8.0285  10.5071  10.9680  11.1908  11.3161  11.4538

          k = 0.5005 0.0963 0.0000 (  3423 PWs)   bands (ev):

   -52.0264 -52.0264 -26.3241 -26.3241 -26.1377 -26.1377 -26.1306 -26.1306
    -3.4563  -3.4156  -3.2294  -3.1862   3.4705   3.5764   3.9335   3.9564
     4.8756   5.0978   5.4987   5.7227   6.4088   6.5027   7.0486   7.1763
     8.2817   8.3337  10.8835  11.1044  11.5003  11.6641  11.9514

          k = 0.6673-0.0000 0.0000 (  3450 PWs)   bands (ev):

   -52.0219 -52.0219 -26.2803 -26.2803 -26.2381 -26.2381 -26.1214 -26.1214
    -3.1542  -3.1542  -3.0679  -3.0679   3.4030   3.4590   4.2355   4.2355
     4.7162   4.8106   5.2604   5.2604   5.9140   5.9140   6.6991   6.6991
     8.7548   8.8201  10.4546  10.4546  11.6202  12.1229  12.3009

     the Fermi energy is     9.8405 ev

!    total energy              =    -371.07389195 Ry
     estimated scf accuracy    <          2.2E-10 Ry
     smearing contrib. (-TS)   =      -0.00000000 Ry
     internal energy E=F+TS    =    -371.07389195 Ry

     The total energy is F=E-TS. E is the sum of the following terms:
     one-electron contribution =    -232.31797790 Ry
     hartree contribution      =     134.76406915 Ry
     xc contribution           =     -65.12041722 Ry
     ewald contribution        =    -208.39956597 Ry

     convergence has been achieved in  21 iterations

     Forces acting on atoms (cartesian axes, Ry/au):

     atom    1 type  1   force =    -0.00000000   -0.00000000    0.00000787
     atom    2 type  1   force =    -0.00000000    0.00000000   -0.00000787
     atom    3 type  2   force =    -0.00000000    0.00000000    0.00069670
     atom    4 type  2   force =     0.00000000    0.00000000   -0.00069670
     atom    5 type  2   force =    -0.00000000   -0.00000000   -0.00068670
     atom    6 type  2   force =     0.00000000    0.00000000    0.00068670

     Total force =     0.001383     Total SCF correction =     0.000027


     Computing stress (Cartesian axis) and pressure

          total   stress  (Ry/bohr**3)                   (kbar)     P=       -0.42
  -0.00002046   0.00000000  -0.00000000           -3.01        0.00       -0.00
   0.00000000  -0.00002046   0.00000000            0.00       -3.01        0.00
  -0.00000000  -0.00000000   0.00003230           -0.00       -0.00        4.75


     number of scf cycles    =   2
     number of bfgs steps    =   1

     enthalpy old            =    -371.0738289790 Ry
     enthalpy new            =    -371.0738919454 Ry

     CASE: enthalpy_new < enthalpy_old

     new trust radius        =       0.0057505044 bohr
     new conv_thr            =            1.0E-10 Ry

     new unit-cell volume =    795.46677 a.u.^3 (   117.87601 Ang^3 )
     density =      4.50987 g/cm^3

CELL_PARAMETERS (angstrom)
   1.593459229  -2.759952341   0.000000000
   1.593459229   2.759952341  -0.000000000
  -0.000000000  -0.000000000  13.401484423

ATOMIC_POSITIONS (angstrom)
Mo            1.0623061460        0.9199841136        3.3505787986
Mo            2.6557653651        1.8399682272       10.0509056246
S             1.0623061460        0.9199841136        8.4886198512
S             2.6557653651        1.8399682272        4.9128645720
S             1.0623061460        0.9199841136       11.6132905403
S             2.6557653651        1.8399682272        1.7881938829



     Writing output data file ./MoS2.save/
     NEW-OLD atomic charge density approx. for the potential
     extrapolated charge   51.97584, renormalised to   52.00000

     total cpu time spent up to now is        6.8 secs

     Self-consistent Calculation

     iteration #  1     ecut=    40.00 Ry     beta= 0.70
     Davidson diagonalization with overlap
     ethr =  1.00E-06,  avg # of iterations =  3.4

     total cpu time spent up to now is        6.9 secs

     total energy              =    -371.07336143 Ry
     estimated scf accuracy    <       0.00056288 Ry

     iteration #  2     ecut=    40.00 Ry     beta= 0.70
     Davidson diagonalization with overlap
     ethr =  1.08E-06,  avg # of iterations =  5.9

     total cpu time spent up to now is        7.2 secs

     total energy              =    -371.07305805 Ry
     estimated scf accuracy    <       0.01129129 Ry

     iteration #  3     ecut=    40.00 Ry     beta= 0.70
     Davidson diagonalization with overlap
     ethr =  1.08E-06,  avg # of iterations =  5.0

     total cpu time spent up to now is        7.3 secs

     total energy              =    -371.07393879 Ry
     estimated scf accuracy    <       0.00041195 Ry

     iteration #  4     ecut=    40.00 Ry     beta= 0.70
     Davidson diagonalization with overlap
     ethr =  7.92E-07,  avg # of iterations =  1.0

     total cpu time spent up to now is        7.5 secs

     total energy              =    -371.07393562 Ry
     estimated scf accuracy    <       0.00017568 Ry

     iteration #  5     ecut=    40.00 Ry     beta= 0.70
     Davidson diagonalization with overlap
     ethr =  3.38E-07,  avg # of iterations =  1.3

     total cpu time spent up to now is        7.6 secs

     total energy              =    -371.07393512 Ry
     estimated scf accuracy    <       0.00009115 Ry

     iteration #  6     ecut=    40.00 Ry     beta= 0.70
     Davidson diagonalization with overlap
     ethr =  1.75E-07,  avg # of iterations =  2.0

     total cpu time spent up to now is        7.7 secs

     total energy              =    -371.07393503 Ry
     estimated scf accuracy    <       0.00005110 Ry

     iteration #  7     ecut=    40.00 Ry     beta= 0.70
     Davidson diagonalization with overlap
     ethr =  9.83E-08,  avg # of iterations =  2.6

     total cpu time spent up to now is        7.9 secs

     total energy              =    -371.07393513 Ry
     estimated scf accuracy    <       0.00002254 Ry

     iteration #  8     ecut=    40.00 Ry     beta= 0.70
     Davidson diagonalization with overlap
     ethr =  4.34E-08,  avg # of iterations =  3.7

     total cpu time spent up to now is        8.0 secs

     total energy              =    -371.07393703 Ry
     estimated scf accuracy    <       0.00000430 Ry

     iteration #  9     ecut=    40.00 Ry     beta= 0.70
     Davidson diagonalization with overlap
     ethr =  8.27E-09,  avg # of iterations =  2.9

     total cpu time spent up to now is        8.1 secs

     total energy              =    -371.07393752 Ry
     estimated scf accuracy    <       0.00000200 Ry

     iteration # 10     ecut=    40.00 Ry     beta= 0.70
     Davidson diagonalization with overlap
     ethr =  3.85E-09,  avg # of iterations =  1.0

     total cpu time spent up to now is        8.3 secs

     total energy              =    -371.07393824 Ry
     estimated scf accuracy    <       0.00000231 Ry

     iteration # 11     ecut=    40.00 Ry     beta= 0.70
     Davidson diagonalization with overlap
     ethr =  3.85E-09,  avg # of iterations =  2.6

     total cpu time spent up to now is        8.4 secs

     total energy              =    -371.07393538 Ry
     estimated scf accuracy    <       0.00000842 Ry

     iteration # 12     ecut=    40.00 Ry     beta= 0.70
     Davidson diagonalization with overlap
     ethr =  3.85E-09,  avg # of iterations =  5.0

     total cpu time spent up to now is        8.6 secs

     total energy              =    -371.07393693 Ry
     estimated scf accuracy    <       0.00000149 Ry

     iteration # 13     ecut=    40.00 Ry     beta= 0.70
     Davidson diagonalization with overlap
     ethr =  2.87E-09,  avg # of iterations =  2.9

     total cpu time spent up to now is        8.7 secs

     total energy              =    -371.07393723 Ry
     estimated scf accuracy    <       0.00000009 Ry

     iteration # 14     ecut=    40.00 Ry     beta= 0.70
     Davidson diagonalization with overlap
     ethr =  1.72E-10,  avg # of iterations =  2.0

     total cpu time spent up to now is        8.9 secs

     total energy              =    -371.07393725 Ry
     estimated scf accuracy    <          1.5E-09 Ry

     iteration # 15     ecut=    40.00 Ry     beta= 0.70
     Davidson diagonalization with overlap
     ethr =  2.80E-12,  avg # of iterations =  4.7

     total cpu time spent up to now is        9.0 secs

     total energy              =    -371.07393725 Ry
     estimated scf accuracy    <          1.8E-09 Ry

     iteration # 16     ecut=    40.00 Ry     beta= 0.70
     Davidson diagonalization with overlap
     ethr =  2.80E-12,  avg # of iterations =  1.7

     total cpu time spent up to now is        9.2 secs

     total energy              =    -371.07393725 Ry
     estimated scf accuracy    <          4.0E-10 Ry

     iteration # 17     ecut=    40.00 Ry     beta= 0.70
     Davidson diagonalization with overlap
     ethr =  7.67E-13,  avg # of iterations =  4.4

     total cpu time spent up to now is        9.4 secs

     total energy              =    -371.07393725 Ry
     estimated scf accuracy    <          5.2E-10 Ry

     iteration # 18     ecut=    40.00 Ry     beta= 0.70
     Davidson diagonalization with overlap
     ethr =  7.67E-13,  avg # of iterations =  1.1

     total cpu time spent up to now is        9.5 secs

     total energy              =    -371.07393725 Ry
     estimated scf accuracy    <          6.4E-10 Ry

     iteration # 19     ecut=    40.00 Ry     beta= 0.70
     Davidson diagonalization with overlap
     ethr =  7.67E-13,  avg # of iterations =  1.0

     total cpu time spent up to now is        9.6 secs

     total energy              =    -371.07393725 Ry
     estimated scf accuracy    <          2.7E-10 Ry

     iteration # 20     ecut=    40.00 Ry     beta= 0.70
     Davidson diagonalization with overlap
     ethr =  5.27E-13,  avg # of iterations =  2.7

     total cpu time spent up to now is        9.7 secs

     End of self-consistent calculation

          k = 0.0000 0.0000 0.0000 (  3339 PWs)   bands (ev):

   -52.0541 -52.0541 -26.1966 -26.1966 -25.9965 -25.9965 -25.9965 -25.9965
    -5.3011  -5.2133  -4.0314  -3.8799   2.9725   3.4550   6.1999   6.1999
     6.2034   6.2034   6.4588   7.3029   7.3029   7.3153   7.3153   7.7558
     8.5017   9.2381  11.5660  11.5660  11.5750  11.5750  11.7879

          k = 0.1669 0.0964 0.0000 (  3393 PWs)   bands (ev):

   -52.0450 -52.0450 -26.1783 -26.1783 -26.0899 -26.0899 -26.0178 -26.0178
    -4.9093  -4.8245  -3.8622  -3.7295   3.3911   3.8531   5.4416   5.4665
     5.6629   6.1072   6.6011   6.6110   6.7556   6.7726   7.5046   8.0765
     8.3842   8.6857  10.9595  11.3166  11.3881  11.3960  11.4670

          k = 0.3339 0.1928 0.0000 (  3412 PWs)   bands (ev):

   -52.0266 -52.0266 -26.2725 -26.2725 -26.1414 -26.1414 -26.0602 -26.0602
    -3.9953  -3.9289  -3.4727  -3.3912   3.5074   3.6708   4.5551   4.7375
     4.7850   5.0612   5.9620   5.9836   7.0431   7.3655   7.4252   7.4601
     7.7920   7.9103  10.9409  10.9911  11.0437  11.4042  11.9855

          k =-0.5008-0.2892-0.0000 (  3384 PWs)   bands (ev):

   -52.0174 -52.0174 -26.3620 -26.3620 -26.1228 -26.1228 -26.0812 -26.0812
    -3.4238  -3.3904  -3.2353  -3.2042   3.0121   3.1236   4.0013   4.0928
     4.6194   4.8908   5.6452   5.6683   6.9025   6.9880   7.8039   7.8646
     8.1613   8.1974  11.0308  11.0470  11.4852  11.6172  12.4353

          k = 0.3339-0.0000 0.0000 (  3376 PWs)   bands (ev):

   -52.0312 -52.0312 -26.2101 -26.2101 -26.1506 -26.1506 -26.0673 -26.0673
    -4.2483  -4.1742  -3.5755  -3.4773   3.7565   4.0254   4.9416   5.0683
     5.0729   5.2126   5.5141   5.7860   6.8453   6.8513   7.6792   7.8868
     8.0266   8.0343  10.5105  10.9733  11.2018  11.3264  11.4607

          k = 0.5008 0.0964 0.0000 (  3423 PWs)   bands (ev):

   -52.0174 -52.0174 -26.3164 -26.3164 -26.1286 -26.1286 -26.1229 -26.1229
    -3.4477  -3.4073  -3.2249  -3.1822   3.4728   3.5776   3.9352   3.9578
     4.8816   5.1019   5.5026   5.7254   6.4162   6.5090   7.0502   7.1768
     8.2905   8.3422  10.8936  11.1174  11.5158  11.6767  11.9586

          k = 0.6678-0.0000 0.0000 (  3450 PWs)   bands (ev):

   -52.0128 -52.0128 -26.2722 -26.2722 -26.2298 -26.2298 -26.1136 -26.1136
    -3.1442  -3.1442  -3.0626  -3.0626   3.4045   3.4599   4.2370   4.2370
     4.7194   4.8129   5.2670   5.2670   5.9163   5.9163   6.6987   6.6987
     8.7633   8.8284  10.4717  10.4717  11.6229  12.1224  12.3117

     the Fermi energy is     9.8495 ev

!    total energy              =    -371.07393725 Ry
     estimated scf accuracy    <          1.1E-11 Ry
     smearing contrib. (-TS)   =      -0.00000000 Ry
     internal energy E=F+TS    =    -371.07393725 Ry

     The total energy is F=E-TS. E is the sum of the following terms:
     one-electron contribution =    -232.87537383 Ry
     hartree contribution      =     135.05680341 Ry
     xc contribution           =     -65.12389567 Ry
     ewald contribution        =    -208.13147116 Ry

     convergence has been achieved in  20 iterations

     Forces acting on atoms (cartesian axes, Ry/au):

     atom    1 type  1   force =     0.00000000    0.00000000   -0.00005740
     atom    2 type  1   force =     0.00000000   -0.00000000    0.00005740
     atom    3 type  2   force =    -0.00000000    0.00000000    0.00088852
     atom    4 type  2   force =    -0.00000000   -0.00000000   -0.00088852
     atom    5 type  2   force =     0.00000000   -0.00000000   -0.00094386
     atom    6 type  2   force =    -0.00000000    0.00000000    0.00094386

     Total force =     0.001835     Total SCF correction =     0.000007


     Computing stress (Cartesian axis) and pressure

          total   stress  (Ry/bohr**3)                   (kbar)     P=        0.50
  -0.00000927  -0.00000000  -0.00000000           -1.36       -0.00       -0.00
  -0.00000000  -0.00000927   0.00000000           -0.00       -1.36        0.00
  -0.00000000   0.00000000   0.00002868           -0.00        0.00        4.22


     number of scf cycles    =   3
     number of bfgs steps    =   2

     enthalpy old            =    -371.0738919454 Ry
     enthalpy new            =    -371.0739372461 Ry

     CASE: enthalpy_new < enthalpy_old

     new trust radius        =       0.0086149726 bohr
     new conv_thr            =            1.0E-10 Ry

     new unit-cell volume =    795.38825 a.u.^3 (   117.86438 Ang^3 )
     density =      4.51031 g/cm^3

CELL_PARAMETERS (angstrom)
   1.592165226  -2.757711063   0.000000000
   1.592165226   2.757711063  -0.000000000
  -0.000000000  -0.000000000  13.421951970

ATOMIC_POSITIONS (angstrom)
Mo            1.0614434777        0.9192370209        3.3557165374
Mo            2.6536086942        1.8384740418       10.0662354329
S             1.0614434777        0.9192370209        8.5026191991
S             2.6536086942        1.8384740418        4.9193327712
S             1.0614434777        0.9192370209       11.6300103631
S             2.6536086942        1.8384740418        1.7919416071



     Writing output data file ./MoS2.save/
     NEW-OLD atomic charge density approx. for the potential
     extrapolated charge   51.99487, renormalised to   52.00000

     total cpu time spent up to now is       10.2 secs

     Self-consistent Calculation

     iteration #  1     ecut=    40.00 Ry     beta= 0.70
     Davidson diagonalization with overlap
     ethr =  1.00E-06,  avg # of iterations =  3.0

     Threshold (ethr) on eigenvalues was too large:
     Diagonalizing with lowered threshold

     Davidson diagonalization with overlap
     ethr =  4.65E-08,  avg # of iterations =  4.1

     total cpu time spent up to now is       10.6 secs

     total energy              =    -371.07393465 Ry
     estimated scf accuracy    <       0.00004999 Ry

     iteration #  2     ecut=    40.00 Ry     beta= 0.70
     Davidson diagonalization with overlap
     ethr =  9.61E-08,  avg # of iterations =  6.0

     total cpu time spent up to now is       10.8 secs

     total energy              =    -371.07390254 Ry
     estimated scf accuracy    <       0.00091967 Ry

     iteration #  3     ecut=    40.00 Ry     beta= 0.70
     Davidson diagonalization with overlap
     ethr =  9.61E-08,  avg # of iterations =  5.0

     total cpu time spent up to now is       10.9 secs

     total energy              =    -371.07397965 Ry
     estimated scf accuracy    <       0.00002254 Ry

     iteration #  4     ecut=    40.00 Ry     beta= 0.70
     Davidson diagonalization with overlap
     ethr =  4.33E-08,  avg # of iterations =  2.0

     total cpu time spent up to now is       11.1 secs

     total energy              =    -371.07398031 Ry
     estimated scf accuracy    <       0.00000413 Ry

     iteration #  5     ecut=    40.00 Ry     beta= 0.70
     Davidson diagonalization with overlap
     ethr =  7.94E-09,  avg # of iterations =  4.3

     total cpu time spent up to now is       11.2 secs

     total energy              =    -371.07398119 Ry
     estimated scf accuracy    <       0.00000106 Ry

     iteration #  6     ecut=    40.00 Ry     beta= 0.70
     Davidson diagonalization with overlap
     ethr =  2.04E-09,  avg # of iterations =  2.1

     total cpu time spent up to now is       11.4 secs

     total energy              =    -371.07398124 Ry
     estimated scf accuracy    <       0.00000048 Ry

     iteration #  7     ecut=    40.00 Ry     beta= 0.70
     Davidson diagonalization with overlap
     ethr =  9.20E-10,  avg # of iterations =  2.0

     total cpu time spent up to now is       11.5 secs

     total energy              =    -371.07398129 Ry
     estimated scf accuracy    <       0.00000001 Ry

     iteration #  8     ecut=    40.00 Ry     beta= 0.70
     Davidson diagonalization with overlap
     ethr =  2.74E-11,  avg # of iterations =  5.7

     total cpu time spent up to now is       11.7 secs

     total energy              =    -371.07398129 Ry
     estimated scf accuracy    <       0.00000010 Ry

     iteration #  9     ecut=    40.00 Ry     beta= 0.70
     Davidson diagonalization with overlap
     ethr =  2.74E-11,  avg # of iterations =  3.9

     total cpu time spent up to now is       11.9 secs

     total energy              =    -371.07398130 Ry
     estimated scf accuracy    <          5.6E-09 Ry

     iteration # 10     ecut=    40.00 Ry     beta= 0.70
     Davidson diagonalization with overlap
     ethr =  1.09E-11,  avg # of iterations =  3.4

     total cpu time spent up to now is       12.0 secs

     total energy              =    -371.07398130 Ry
     estimated scf accuracy    <          6.8E-10 Ry

     iteration # 11     ecut=    40.00 Ry     beta= 0.70
     Davidson diagonalization with overlap
     ethr =  1.30E-12,  avg # of iterations =  2.9

     total cpu time spent up to now is       12.2 secs

     total energy              =    -371.07398130 Ry
     estimated scf accuracy    <          2.2E-10 Ry

     iteration # 12     ecut=    40.00 Ry     beta= 0.70
     Davidson diagonalization with overlap
     ethr =  4.23E-13,  avg # of iterations =  2.6

     total cpu time spent up to now is       12.3 secs

     End of self-consistent calculation

          k = 0.0000 0.0000 0.0000 (  3339 PWs)   bands (ev):

   -52.0508 -52.0508 -26.1949 -26.1949 -25.9916 -25.9916 -25.9916 -25.9916
    -5.3044  -5.2178  -4.0371  -3.8878   2.9712   3.4482   6.2088   6.2088
     6.2122   6.2122   6.4540   7.3122   7.3122   7.3243   7.3243   7.7403
     8.4929   9.2267  11.5731  11.5731  11.5820  11.5820  11.7921

          k = 0.1671 0.0965 0.0000 (  3393 PWs)   bands (ev):

   -52.0415 -52.0415 -26.1764 -26.1764 -26.0857 -26.0857 -26.0131 -26.0131
    -4.9113  -4.8276  -3.8669  -3.7362   3.3913   3.8483   5.4477   5.4722
     5.6617   6.1053   6.6111   6.6209   6.7633   6.7799   7.5055   8.0703
     8.3779   8.6803  10.9584  11.3224  11.3843  11.4001  11.4698

          k = 0.3342 0.1929 0.0000 (  3412 PWs)   bands (ev):

   -52.0229 -52.0229 -26.2698 -26.2698 -26.1392 -26.1392 -26.0558 -26.0558
    -3.9938  -3.9283  -3.4750  -3.3946   3.5072   3.6684   4.5512   4.7320
     4.7870   5.0599   5.9677   5.9888   7.0381   7.3579   7.4363   7.4707
     7.7897   7.9074  10.9415  10.9978  11.0495  11.4030  11.9904

          k =-0.5012-0.2894-0.0000 (  3384 PWs)   bands (ev):

   -52.0136 -52.0136 -26.3599 -26.3599 -26.1205 -26.1205 -26.0770 -26.0770
    -3.4195  -3.3865  -3.2361  -3.2055   3.0078   3.1176   3.9947   4.0850
     4.6199   4.8872   5.6502   5.6728   6.8959   6.9800   7.8141   7.8738
     8.1614   8.1957  11.0419  11.0577  11.4940  11.6267  12.4391

          k = 0.3342 0.0000 0.0000 (  3376 PWs)   bands (ev):

   -52.0276 -52.0276 -26.2069 -26.2069 -26.1485 -26.1485 -26.0630 -26.0630
    -4.2479  -4.1748  -3.5784  -3.4817   3.7581   4.0240   4.9441   5.0677
     5.0744   5.2125   5.5146   5.7828   6.8521   6.8575   7.6781   7.8840
     8.0257   8.0349  10.5080  10.9722  11.2078  11.3317  11.4613

          k = 0.5012 0.0965 0.0000 (  3423 PWs)   bands (ev):

   -52.0136 -52.0136 -26.3139 -26.3139 -26.1248 -26.1248 -26.1205 -26.1205
    -3.4436  -3.4037  -3.2256  -3.1835   3.4702   3.5733   3.9316   3.9538
     4.8831   5.1004   5.5016   5.7222   6.4188   6.5101   7.0459   7.1708
     8.2945   8.3456  10.8986  11.1254  11.5269  11.6841  11.9606

          k = 0.6683 0.0000 0.0000 (  3450 PWs)   bands (ev):

   -52.0090 -52.0090 -26.2693 -26.2693 -26.2268 -26.2268 -26.1112 -26.1112
    -3.1387  -3.1387  -3.0624  -3.0624   3.4009   3.4554   4.2332   4.2332
     4.7175   4.8097   5.2686   5.2686   5.9130   5.9130   6.6917   6.6917
     8.7668   8.8315  10.4848  10.4848  11.6201  12.1142  12.3170

     the Fermi energy is     9.8533 ev

!    total energy              =    -371.07398130 Ry
     estimated scf accuracy    <          6.6E-12 Ry
     smearing contrib. (-TS)   =      -0.00000000 Ry
     internal energy E=F+TS    =    -371.07398130 Ry

     The total energy is F=E-TS. E is the sum of the following terms:
     one-electron contribution =    -233.75402802 Ry
     hartree contribution      =     135.49987025 Ry
     xc contribution           =     -65.12711947 Ry
     ewald contribution        =    -207.69270406 Ry

     convergence has been achieved in  12 iterations

     Forces acting on atoms (cartesian axes, Ry/au):

     atom    1 type  1   force =     0.00000000    0.00000000   -0.00009201
     atom    2 type  1   force =    -0.00000000    0.00000000    0.00009201
     atom    3 type  2   force =     0.00000000   -0.00000000    0.00121835
     atom    4 type  2   force =     0.00000000   -0.00000000   -0.00121835
     atom    5 type  2   force =     0.00000000   -0.00000000   -0.00130858
     atom    6 type  2   force =     0.00000000    0.00000000    0.00130858

     Total force =     0.002532     Total SCF correction =     0.000014


     Computing stress (Cartesian axis) and pressure

          total   stress  (Ry/bohr**3)                   (kbar)     P=        1.33
   0.00000230  -0.00000000   0.00000000            0.34       -0.00        0.00
   0.00000000   0.00000230   0.00000000            0.00        0.34        0.00
   0.00000000  -0.00000000   0.00002261            0.00       -0.00        3.33


     number of scf cycles    =   4
     number of bfgs steps    =   3

     enthalpy old            =    -371.0739372461 Ry
     enthalpy new            =    -371.0739813021 Ry

     CASE: enthalpy_new < enthalpy_old

     new trust radius        =       0.0129021163 bohr
     new conv_thr            =            1.0E-10 Ry

     new unit-cell volume =    795.79153 a.u.^3 (   117.92414 Ang^3 )
     density =      4.50803 g/cm^3

CELL_PARAMETERS (angstrom)
   1.590750504  -2.755260691   0.000000000
   1.590750504   2.755260691  -0.000000000
  -0.000000000  -0.000000000  13.452653291

ATOMIC_POSITIONS (angstrom)
Mo            1.0605003291        0.9184202302        3.3634043207
Mo            2.6512508227        1.8368404605       10.0892489701
S             1.0605003291        0.9184202302        8.5241191384
S             2.6512508227        1.8368404605        4.9285341524
S             1.0605003291        0.9184202302       11.6545691947
S             2.6512508227        1.8368404605        1.7980840961



     Writing output data file ./MoS2.save/
     NEW-OLD atomic charge density approx. for the potential
     extrapolated charge   52.02635, renormalised to   52.00000

     total cpu time spent up to now is       12.9 secs

     Self-consistent Calculation

     iteration #  1     ecut=    40.00 Ry     beta= 0.70
     Davidson diagonalization with overlap
     ethr =  1.00E-06,  avg # of iterations =  3.3

     total cpu time spent up to now is       13.1 secs

     total energy              =    -371.07340203 Ry
     estimated scf accuracy    <       0.00057409 Ry

     iteration #  2     ecut=    40.00 Ry     beta= 0.70
     Davidson diagonalization with overlap
     ethr =  1.10E-06,  avg # of iterations =  6.0

     total cpu time spent up to now is       13.3 secs

     total energy              =    -371.07310973 Ry
     estimated scf accuracy    <       0.01266334 Ry

     iteration #  3     ecut=    40.00 Ry     beta= 0.70
     Davidson diagonalization with overlap
     ethr =  1.10E-06,  avg # of iterations =  5.0

     total cpu time spent up to now is       13.5 secs

     total energy              =    -371.07403314 Ry
     estimated scf accuracy    <       0.00055942 Ry

     iteration #  4     ecut=    40.00 Ry     beta= 0.70
     Davidson diagonalization with overlap
     ethr =  1.08E-06,  avg # of iterations =  1.0

     total cpu time spent up to now is       13.6 secs

     total energy              =    -371.07401199 Ry
     estimated scf accuracy    <       0.00024884 Ry

     iteration #  5     ecut=    40.00 Ry     beta= 0.70
     Davidson diagonalization with overlap
     ethr =  4.79E-07,  avg # of iterations =  1.7

     total cpu time spent up to now is       13.7 secs

     total energy              =    -371.07402052 Ry
     estimated scf accuracy    <       0.00006759 Ry

     iteration #  6     ecut=    40.00 Ry     beta= 0.70
     Davidson diagonalization with overlap
     ethr =  1.30E-07,  avg # of iterations =  3.4

     total cpu time spent up to now is       13.9 secs

     total energy              =    -371.07402381 Ry
     estimated scf accuracy    <       0.00002069 Ry

     iteration #  7     ecut=    40.00 Ry     beta= 0.70
     Davidson diagonalization with overlap
     ethr =  3.98E-08,  avg # of iterations =  3.4

     total cpu time spent up to now is       14.0 secs

     total energy              =    -371.07402584 Ry
     estimated scf accuracy    <       0.00000294 Ry

     iteration #  8     ecut=    40.00 Ry     beta= 0.70
     Davidson diagonalization with overlap
     ethr =  5.65E-09,  avg # of iterations =  2.9

     total cpu time spent up to now is       14.2 secs

     total energy              =    -371.07402616 Ry
     estimated scf accuracy    <       0.00000081 Ry

     iteration #  9     ecut=    40.00 Ry     beta= 0.70
     Davidson diagonalization with overlap
     ethr =  1.56E-09,  avg # of iterations =  2.0

     total cpu time spent up to now is       14.3 secs

     total energy              =    -371.07402612 Ry
     estimated scf accuracy    <       0.00000071 Ry

     iteration # 10     ecut=    40.00 Ry     beta= 0.70
     Davidson diagonalization with overlap
     ethr =  1.37E-09,  avg # of iterations =  1.7

     total cpu time spent up to now is       14.4 secs

     total energy              =    -371.07402609 Ry
     estimated scf accuracy    <       0.00000027 Ry

     iteration # 11     ecut=    40.00 Ry     beta= 0.70
     Davidson diagonalization with overlap
     ethr =  5.14E-10,  avg # of iterations =  3.4

     total cpu time spent up to now is       14.6 secs

     total energy              =    -371.07402613 Ry
     estimated scf accuracy    <          4.8E-09 Ry

     iteration # 12     ecut=    40.00 Ry     beta= 0.70
     Davidson diagonalization with overlap
     ethr =  9.14E-12,  avg # of iterations =  5.1

     total cpu time spent up to now is       14.8 secs

     total energy              =    -371.07402613 Ry
     estimated scf accuracy    <          8.4E-10 Ry

     iteration # 13     ecut=    40.00 Ry     beta= 0.70
     Davidson diagonalization with overlap
     ethr =  1.61E-12,  avg # of iterations =  1.9

     total cpu time spent up to now is       14.9 secs

     total energy              =    -371.07402613 Ry
     estimated scf accuracy    <          3.2E-10 Ry

     iteration # 14     ecut=    40.00 Ry     beta= 0.70
     Davidson diagonalization with overlap
     ethr =  6.23E-13,  avg # of iterations =  4.0

     total cpu time spent up to now is       15.1 secs

     total energy              =    -371.07402613 Ry
     estimated scf accuracy    <          3.2E-10 Ry

     iteration # 15     ecut=    40.00 Ry     beta= 0.70
     Davidson diagonalization with overlap
     ethr =  6.09E-13,  avg # of iterations =  1.0

     total cpu time spent up to now is       15.2 secs

     total energy              =    -371.07402613 Ry
     estimated scf accuracy    <          1.9E-10 Ry

     iteration # 16     ecut=    40.00 Ry     beta= 0.70
     Davidson diagonalization with overlap
     ethr =  3.56E-13,  avg # of iterations =  3.1

     total cpu time spent up to now is       15.3 secs

     End of self-consistent calculation

          k = 0.0000 0.0000 0.0000 (  3339 PWs)   bands (ev):

   -52.0562 -52.0562 -26.2020 -26.2020 -25.9953 -25.9953 -25.9953 -25.9953
    -5.3165  -5.2320  -4.0518  -3.9060   2.9622   3.4306   6.2098   6.2098
     6.2130   6.2130   6.4420   7.3136   7.3136   7.3252   7.3252   7.7109
     8.4749   9.2032  11.5720  11.5720  11.5806  11.5806  11.7879

          k = 0.1672 0.0965 0.0000 (  3393 PWs)   bands (ev):

   -52.0468 -52.0468 -26.1834 -26.1834 -26.0902 -26.0902 -26.0169 -26.0169
    -4.9221  -4.8404  -3.8805  -3.7529   3.3840   3.8328   5.4455   5.4695
     5.6527   6.0934   6.6134   6.6228   6.7630   6.7791   7.4981   8.0530
     8.3623   8.6648  10.9481  11.3196  11.3700  11.3958  11.4636

          k = 0.3345 0.1931 0.0000 (  3412 PWs)   bands (ev):

   -52.0280 -52.0280 -26.2758 -26.2758 -26.1459 -26.1458 -26.0600 -26.0600
    -4.0008  -3.9367  -3.4861  -3.4077   3.4988   3.6565   4.5386   4.7166
     4.7810   5.0487   5.9652   5.9857   7.0241   7.3397   7.4398   7.4733
     7.7786   7.8949  10.9334  10.9964  11.0467  11.3915  11.9872

          k =-0.5017-0.2896-0.0000 (  3384 PWs)   bands (ev):

   -52.0186 -52.0186 -26.3666 -26.3666 -26.1270 -26.1270 -26.0814 -26.0814
    -3.4236  -3.3914  -3.2458  -3.2159   2.9946   3.1018   3.9788   4.0674
     4.6125   4.8736   5.6470   5.6688   6.8800   6.9619   7.8165   7.8747
     8.1528   8.1847  11.0451  11.0604  11.4949  11.6277  12.4349

          k = 0.3345 0.0000 0.0000 (  3376 PWs)   bands (ev):

   -52.0327 -52.0327 -26.2124 -26.2124 -26.1553 -26.1553 -26.0673 -26.0673
    -4.2561  -4.1846  -3.5902  -3.4958   3.7520   4.0130   4.9382   5.0588
     5.0668   5.2032   5.5068   5.7696   6.8506   6.8554   7.6680   7.8717
     8.0157   8.0266  10.4970  10.9610  11.2056  11.3288  11.4521

          k = 0.5017 0.0965 0.0000 (  3423 PWs)   bands (ev):

   -52.0186 -52.0186 -26.3203 -26.3203 -26.1296 -26.1296 -26.1270 -26.1270
    -3.4479  -3.4088  -3.2351  -3.1940   3.4588   3.5594   3.9188   3.9405
     4.8765   5.0891   5.4924   5.7092   6.4130   6.5020   7.0327   7.1546
     8.2900   8.3402  10.8955  11.1244  11.5304  11.6828  11.9545

          k = 0.6689 0.0000 0.0000 (  3450 PWs)   bands (ev):

   -52.0139 -52.0139 -26.2752 -26.2752 -26.2326 -26.2326 -26.1176 -26.1176
    -3.1416  -3.1416  -3.0711  -3.0711   3.3883   3.4414   4.2201   4.2201
     4.7069   4.7969   5.2613   5.2613   5.9008   5.9008   6.6747   6.6747
     8.7619   8.8257  10.4902  10.4902  11.6091  12.0947  12.3138

     the Fermi energy is     9.7855 ev

!    total energy              =    -371.07402613 Ry
     estimated scf accuracy    <          1.9E-11 Ry
     smearing contrib. (-TS)   =      -0.00000000 Ry
     internal energy E=F+TS    =    -371.07402613 Ry

     The total energy is F=E-TS. E is the sum of the following terms:
     one-electron contribution =    -235.17171924 Ry
     hartree contribution      =     136.19547647 Ry
     xc contribution           =     -65.13041715 Ry
     ewald contribution        =    -206.96736621 Ry

     convergence has been achieved in  16 iterations

     Forces acting on atoms (cartesian axes, Ry/au):

     atom    1 type  1   force =    -0.00000000   -0.00000000   -0.00011016
     atom    2 type  1   force =    -0.00000000    0.00000000    0.00011016
     atom    3 type  2   force =    -0.00000000    0.00000000    0.00160510
     atom    4 type  2   force =     0.00000000    0.00000000   -0.00160510
     atom    5 type  2   force =    -0.00000000   -0.00000000   -0.00171348
     atom    6 type  2   force =    -0.00000000    0.00000000    0.00171348

     Total force =     0.003324     Total SCF correction =     0.000015


     Computing stress (Cartesian axis) and pressure

          total   stress  (Ry/bohr**3)                   (kbar)     P=        2.19
   0.00001479  -0.00000000  -0.00000000            2.18       -0.00       -0.00
  -0.00000000   0.00001479   0.00000000           -0.00        2.18        0.00
  -0.00000000   0.00000000   0.00001517           -0.00        0.00        2.23


     number of scf cycles    =   5
     number of bfgs steps    =   4

     enthalpy old            =    -371.0739813021 Ry
     enthalpy new            =    -371.0740261331 Ry

     CASE: enthalpy_new < enthalpy_old

     new trust radius        =       0.0193139015 bohr
     new conv_thr            =            1.0E-10 Ry

     new unit-cell volume =    797.09456 a.u.^3 (   118.11723 Ang^3 )
     density =      4.50066 g/cm^3

CELL_PARAMETERS (angstrom)
   1.589334285  -2.752807729   0.000000000
   1.589334285   2.752807729  -0.000000000
  -0.000000000  -0.000000000  13.498705272

ATOMIC_POSITIONS (angstrom)
Mo            1.0595561836        0.9176025763        3.3749270601
Mo            2.6488904590        1.8352051525       10.1237782114
S             1.0595561836        0.9176025763        8.5571282276
S             2.6488904590        1.8352051525        4.9415770439
S             1.0595561836        0.9176025763       11.6906380990
S             2.6488904590        1.8352051525        1.8080671725



     Writing output data file ./MoS2.save/
     NEW-OLD atomic charge density approx. for the potential
     extrapolated charge   52.08500, renormalised to   52.00000

     total cpu time spent up to now is       16.1 secs

     Self-consistent Calculation

     iteration #  1     ecut=    40.00 Ry     beta= 0.70
     Davidson diagonalization with overlap
     ethr =  1.00E-06,  avg # of iterations =  6.3

     total cpu time spent up to now is       16.3 secs

     total energy              =    -371.06569523 Ry
     estimated scf accuracy    <       0.00803413 Ry

     iteration #  2     ecut=    40.00 Ry     beta= 0.70
     Davidson diagonalization with overlap
     ethr =  1.55E-05,  avg # of iterations =  6.0

     total cpu time spent up to now is       16.5 secs

     total energy              =    -371.06069359 Ry
     estimated scf accuracy    <       0.17993636 Ry

     iteration #  3     ecut=    40.00 Ry     beta= 0.70
     Davidson diagonalization with overlap
     ethr =  1.55E-05,  avg # of iterations =  5.1

     total cpu time spent up to now is       16.7 secs

     total energy              =    -371.07407860 Ry
     estimated scf accuracy    <       0.00776717 Ry

     iteration #  4     ecut=    40.00 Ry     beta= 0.70
     Davidson diagonalization with overlap
     ethr =  1.49E-05,  avg # of iterations =  1.0

     total cpu time spent up to now is       16.8 secs

     total energy              =    -371.07396428 Ry
     estimated scf accuracy    <       0.00350007 Ry

     iteration #  5     ecut=    40.00 Ry     beta= 0.70
     Davidson diagonalization with overlap
     ethr =  6.73E-06,  avg # of iterations =  1.4

     total cpu time spent up to now is       16.9 secs

     total energy              =    -371.07402012 Ry
     estimated scf accuracy    <       0.00161426 Ry

     iteration #  6     ecut=    40.00 Ry     beta= 0.70
     Davidson diagonalization with overlap
     ethr =  3.10E-06,  avg # of iterations =  2.6

     total cpu time spent up to now is       17.1 secs

     total energy              =    -371.07405102 Ry
     estimated scf accuracy    <       0.00084744 Ry

     iteration #  7     ecut=    40.00 Ry     beta= 0.70
     Davidson diagonalization with overlap
     ethr =  1.63E-06,  avg # of iterations =  2.3

     total cpu time spent up to now is       17.2 secs

     total energy              =    -371.07407816 Ry
     estimated scf accuracy    <       0.00041282 Ry

     iteration #  8     ecut=    40.00 Ry     beta= 0.70
     Davidson diagonalization with overlap
     ethr =  7.94E-07,  avg # of iterations =  2.4

     total cpu time spent up to now is       17.3 secs

     total energy              =    -371.07408184 Ry
     estimated scf accuracy    <       0.00025216 Ry

     iteration #  9     ecut=    40.00 Ry     beta= 0.70
     Davidson diagonalization with overlap
     ethr =  4.85E-07,  avg # of iterations =  1.6

     total cpu time spent up to now is       17.5 secs

     total energy              =    -371.07407544 Ry
     estimated scf accuracy    <       0.00015530 Ry

     iteration # 10     ecut=    40.00 Ry     beta= 0.70
     Davidson diagonalization with overlap
     ethr =  2.99E-07,  avg # of iterations =  1.7

     total cpu time spent up to now is       17.6 secs

     total energy              =    -371.07406974 Ry
     estimated scf accuracy    <       0.00007240 Ry

     iteration # 11     ecut=    40.00 Ry     beta= 0.70
     Davidson diagonalization with overlap
     ethr =  1.39E-07,  avg # of iterations =  4.0

     total cpu time spent up to now is       17.8 secs

     total energy              =    -371.07407892 Ry
     estimated scf accuracy    <       0.00000299 Ry

     iteration # 12     ecut=    40.00 Ry     beta= 0.70
     Davidson diagonalization with overlap
     ethr =  5.76E-09,  avg # of iterations =  4.3

     total cpu time spent up to now is       17.9 secs

     total energy              =    -371.07408012 Ry
     estimated scf accuracy    <       0.00000013 Ry

     iteration # 13     ecut=    40.00 Ry     beta= 0.70
     Davidson diagonalization with overlap
     ethr =  2.44E-10,  avg # of iterations =  3.6

     total cpu time spent up to now is       18.1 secs

     total energy              =    -371.07408019 Ry
     estimated scf accuracy    <       0.00000004 Ry

     iteration # 14     ecut=    40.00 Ry     beta= 0.70
     Davidson diagonalization with overlap
     ethr =  7.07E-11,  avg # of iterations =  2.6

     total cpu time spent up to now is       18.2 secs

     total energy              =    -371.07408019 Ry
     estimated scf accuracy    <       0.00000010 Ry

     iteration # 15     ecut=    40.00 Ry     beta= 0.70
     Davidson diagonalization with overlap
     ethr =  7.07E-11,  avg # of iterations =  1.0

     total cpu time spent up to now is       18.3 secs

     total energy              =    -371.07408017 Ry
     estimated scf accuracy    <       0.00000009 Ry

     iteration # 16     ecut=    40.00 Ry     beta= 0.70
     Davidson diagonalization with overlap
     ethr =  7.07E-11,  avg # of iterations =  2.1

     total cpu time spent up to now is       18.5 secs

     total energy              =    -371.07408017 Ry
     estimated scf accuracy    <       0.00000002 Ry

     iteration # 17     ecut=    40.00 Ry     beta= 0.70
     Davidson diagonalization with overlap
     ethr =  3.68E-11,  avg # of iterations =  4.0

     total cpu time spent up to now is       18.6 secs

     total energy              =    -371.07408018 Ry
     estimated scf accuracy    <          6.9E-10 Ry

     iteration # 18     ecut=    40.00 Ry     beta= 0.70
     Davidson diagonalization with overlap
     ethr =  1.32E-12,  avg # of iterations =  4.0

     total cpu time spent up to now is       18.8 secs

     total energy              =    -371.07408018 Ry
     estimated scf accuracy    <          1.2E-09 Ry

     iteration # 19     ecut=    40.00 Ry     beta= 0.70
     Davidson diagonalization with overlap
     ethr =  1.32E-12,  avg # of iterations =  1.0

     total cpu time spent up to now is       18.9 secs

     total energy              =    -371.07408018 Ry
     estimated scf accuracy    <          1.3E-09 Ry

     iteration # 20     ecut=    40.00 Ry     beta= 0.70
     Davidson diagonalization with overlap
     ethr =  1.32E-12,  avg # of iterations =  1.0

     total cpu time spent up to now is       19.0 secs

     total energy              =    -371.07408018 Ry
     estimated scf accuracy    <          1.3E-09 Ry

     iteration # 21     ecut=    40.00 Ry     beta= 0.70
     Davidson diagonalization with overlap
     ethr =  1.32E-12,  avg # of iterations =  1.1

     total cpu time spent up to now is       19.2 secs

     total energy              =    -371.07408018 Ry
     estimated scf accuracy    <          5.7E-10 Ry

     iteration # 22     ecut=    40.00 Ry     beta= 0.70
     Davidson diagonalization with overlap
     ethr =  1.09E-12,  avg # of iterations =  1.0

     total cpu time spent up to now is       19.3 secs

     total energy              =    -371.07408018 Ry
     estimated scf accuracy    <          3.7E-10 Ry

     iteration # 23     ecut=    40.00 Ry     beta= 0.70
     Davidson diagonalization with overlap
     ethr =  7.17E-13,  avg # of iterations =  2.7

     total cpu time spent up to now is       19.4 secs

     End of self-consistent calculation

          k = 0.0000 0.0000 0.0000 (  3339 PWs)   bands (ev):

   -52.0782 -52.0782 -26.2259 -26.2258 -26.0156 -26.0156 -26.0156 -26.0156
    -5.3447  -5.2634  -4.0820  -3.9418   2.9393   3.3941   6.1942   6.1942
     6.1973   6.1973   6.4178   7.2986   7.2986   7.3096   7.3096   7.6591
     8.4419   9.1601  11.5543  11.5543  11.5627  11.5627  11.7676

          k = 0.1674 0.0966 0.0000 (  3393 PWs)   bands (ev):

   -52.0687 -52.0687 -26.2070 -26.2070 -26.1113 -26.1113 -26.0374 -26.0374
    -4.9489  -4.8703  -3.9098  -3.7871   3.3628   3.7986   5.4269   5.4500
     5.6296   6.0633   6.5991   6.6081   6.7462   6.7615   7.4754   8.0165
     8.3309   8.6317  10.9214  11.3004  11.3375  11.3754  11.4403

          k = 0.3348 0.1933 0.0000 (  3412 PWs)   bands (ev):

   -52.0497 -52.0497 -26.2985 -26.2985 -26.1692 -26.1692 -26.0808 -26.0808
    -4.0239  -3.9623  -3.5132  -3.4378   3.4750   3.6273   4.5107   4.6838
     4.7600   5.0194   5.9464   5.9659   6.9948   7.3037   7.4270   7.4590
     7.7514   7.8653  10.9098  10.9787  11.0269  11.3615  11.9684

          k =-0.5021-0.2899-0.0000 (  3384 PWs)   bands (ev):

   -52.0402 -52.0402 -26.3901 -26.3901 -26.1501 -26.1501 -26.1024 -26.1024
    -3.4439  -3.4130  -3.2717  -3.2431   2.9656   3.0686   3.9471   4.0327
     4.5901   4.8420   5.6274   5.6482   6.8484   6.9268   7.8029   7.8586
     8.1279   8.1570  11.0318  11.0465  11.4796  11.6114  12.4157

          k = 0.3348-0.0000 0.0000 (  3376 PWs)   bands (ev):

   -52.0545 -52.0545 -26.2345 -26.2345 -26.1787 -26.1787 -26.0882 -26.0882
    -4.2803  -4.2115  -3.6179  -3.5271   3.7311   3.9842   4.9161   5.0347
     5.0419   5.1768   5.4836   5.7384   6.8325   6.8366   7.6417   7.8423
     7.9891   8.0019  10.4708  10.9315  11.1872  11.3101  11.4249

          k = 0.5021 0.0966 0.0000 (  3423 PWs)   bands (ev):

   -52.0402 -52.0402 -26.3433 -26.3433 -26.1510 -26.1510 -26.1502 -26.1502
    -3.4684  -3.4308  -3.2608  -3.2213   3.4316   3.5283   3.8897   3.9106
     4.8548   5.0601   5.4681   5.6786   6.3914   6.4766   7.0038   7.1210
     8.2693   8.3179  10.8768  11.1060  11.5178  11.6644  11.9335

          k = 0.6695-0.0000 0.0000 (  3450 PWs)   bands (ev):

   -52.0355 -52.0355 -26.2978 -26.2978 -26.2550 -26.2550 -26.1407 -26.1407
    -3.1610  -3.1610  -3.0963  -3.0963   3.3595   3.4105   4.1908   4.1908
     4.6803   4.7669   5.2375   5.2375   5.8730   5.8730   6.6404   6.6404
     8.7408   8.8029  10.4790  10.4790  11.5840  12.0563  12.2943

     the Fermi energy is     9.7662 ev

!    total energy              =    -371.07408018 Ry
     estimated scf accuracy    <          2.8E-11 Ry
     smearing contrib. (-TS)   =      -0.00000000 Ry
     internal energy E=F+TS    =    -371.07408018 Ry

     The total energy is F=E-TS. E is the sum of the following terms:
     one-electron contribution =    -237.45464371 Ry
     hartree contribution      =     137.29196444 Ry
     xc contribution           =     -65.13354676 Ry
     ewald contribution        =    -205.77785415 Ry

     convergence has been achieved in  23 iterations

     Forces acting on atoms (cartesian axes, Ry/au):

     atom    1 type  1   force =     0.00000000    0.00000000   -0.00012139
     atom    2 type  1   force =    -0.00000000    0.00000000    0.00012139
     atom    3 type  2   force =     0.00000000   -0.00000000    0.00197247
     atom    4 type  2   force =     0.00000000   -0.00000000   -0.00197247
     atom    5 type  2   force =    -0.00000000   -0.00000000   -0.00209211
     atom    6 type  2   force =    -0.00000000    0.00000000    0.00209211

     Total force =     0.004070     Total SCF correction =     0.000013


     Computing stress (Cartesian axis) and pressure

          total   stress  (Ry/bohr**3)                   (kbar)     P=        3.02
   0.00002722   0.00000000   0.00000000            4.00        0.00        0.00
   0.00000000   0.00002722   0.00000000            0.00        4.00        0.00
   0.00000000   0.00000000   0.00000723            0.00        0.00        1.06


     number of scf cycles    =   6
     number of bfgs steps    =   5

     enthalpy old            =    -371.0740261331 Ry
     enthalpy new            =    -371.0740801753 Ry

     CASE: enthalpy_new < enthalpy_old

     new trust radius        =       0.0288956435 bohr
     new conv_thr            =            1.0E-10 Ry

     new unit-cell volume =    799.89166 a.u.^3 (   118.53171 Ang^3 )
     density =      4.48492 g/cm^3

CELL_PARAMETERS (angstrom)
   1.588062258  -2.750604512   0.000000000
   1.588062258   2.750604512  -0.000000000
  -0.000000000  -0.000000000  13.567783243

ATOMIC_POSITIONS (angstrom)
Mo            1.0587081652        0.9168681708        3.3922050814
Mo            2.6467704130        1.8337363416       10.1755781613
S             1.0587081652        0.9168681708        8.6075977180
S             2.6467704130        1.8337363416        4.9601855247
S             1.0587081652        0.9168681708       11.7437779858
S             2.6467704130        1.8337363416        1.8240052569



     Writing output data file ./MoS2.save/
     NEW-OLD atomic charge density approx. for the potential
     extrapolated charge   52.18183, renormalised to   52.00000

     total cpu time spent up to now is       20.1 secs

     Self-consistent Calculation

     iteration #  1     ecut=    40.00 Ry     beta= 0.70
     Davidson diagonalization with overlap
     ethr =  1.00E-06,  avg # of iterations =  6.9

     total cpu time spent up to now is       20.3 secs

     total energy              =    -371.03476382 Ry
     estimated scf accuracy    <       0.03787113 Ry

     iteration #  2     ecut=    40.00 Ry     beta= 0.70
     Davidson diagonalization with overlap
     ethr =  7.28E-05,  avg # of iterations =  6.0

     total cpu time spent up to now is       20.6 secs

     total energy              =    -371.00756985 Ry
     estimated scf accuracy    <       0.88501867 Ry

     iteration #  3     ecut=    40.00 Ry     beta= 0.70
     Davidson diagonalization with overlap
     ethr =  7.28E-05,  avg # of iterations =  4.9

     total cpu time spent up to now is       20.8 secs

     total energy              =    -371.07435178 Ry
     estimated scf accuracy    <       0.03577443 Ry

     iteration #  4     ecut=    40.00 Ry     beta= 0.70
     Davidson diagonalization with overlap
     ethr =  6.88E-05,  avg # of iterations =  1.0

     total cpu time spent up to now is       20.9 secs

     total energy              =    -371.07359663 Ry
     estimated scf accuracy    <       0.01744813 Ry

     iteration #  5     ecut=    40.00 Ry     beta= 0.70
     Davidson diagonalization with overlap
     ethr =  3.36E-05,  avg # of iterations =  1.3

     total cpu time spent up to now is       21.0 secs

     total energy              =    -371.07385256 Ry
     estimated scf accuracy    <       0.00805146 Ry

     iteration #  6     ecut=    40.00 Ry     beta= 0.70
     Davidson diagonalization with overlap
     ethr =  1.55E-05,  avg # of iterations =  2.4

     total cpu time spent up to now is       21.1 secs

     total energy              =    -371.07404694 Ry
     estimated scf accuracy    <       0.00402975 Ry

     iteration #  7     ecut=    40.00 Ry     beta= 0.70
     Davidson diagonalization with overlap
     ethr =  7.75E-06,  avg # of iterations =  2.4

     total cpu time spent up to now is       21.3 secs

     total energy              =    -371.07419436 Ry
     estimated scf accuracy    <       0.00201429 Ry

     iteration #  8     ecut=    40.00 Ry     beta= 0.70
     Davidson diagonalization with overlap
     ethr =  3.87E-06,  avg # of iterations =  1.7

     total cpu time spent up to now is       21.4 secs

     total energy              =    -371.07423270 Ry
     estimated scf accuracy    <       0.00151169 Ry

     iteration #  9     ecut=    40.00 Ry     beta= 0.70
     Davidson diagonalization with overlap
     ethr =  2.91E-06,  avg # of iterations =  1.0

     total cpu time spent up to now is       21.5 secs

     total energy              =    -371.07415980 Ry
     estimated scf accuracy    <       0.00124862 Ry

     iteration # 10     ecut=    40.00 Ry     beta= 0.70
     Davidson diagonalization with overlap
     ethr =  2.40E-06,  avg # of iterations =  1.3

     total cpu time spent up to now is       21.7 secs

     total energy              =    -371.07407691 Ry
     estimated scf accuracy    <       0.00068872 Ry

     iteration # 11     ecut=    40.00 Ry     beta= 0.70
     Davidson diagonalization with overlap
     ethr =  1.32E-06,  avg # of iterations =  3.4

     total cpu time spent up to now is       21.8 secs

     total energy              =    -371.07414780 Ry
     estimated scf accuracy    <       0.00004759 Ry

     iteration # 12     ecut=    40.00 Ry     beta= 0.70
     Davidson diagonalization with overlap
     ethr =  9.15E-08,  avg # of iterations =  4.3

     total cpu time spent up to now is       22.0 secs

     total energy              =    -371.07416127 Ry
     estimated scf accuracy    <       0.00000009 Ry

     iteration # 13     ecut=    40.00 Ry     beta= 0.70
     Davidson diagonalization with overlap
     ethr =  1.64E-10,  avg # of iterations =  6.3

     total cpu time spent up to now is       22.2 secs

     total energy              =    -371.07416144 Ry
     estimated scf accuracy    <       0.00000172 Ry

     iteration # 14     ecut=    40.00 Ry     beta= 0.70
     Davidson diagonalization with overlap
     ethr =  1.64E-10,  avg # of iterations =  5.0

     total cpu time spent up to now is       22.4 secs

     total energy              =    -371.07416154 Ry
     estimated scf accuracy    <       0.00000010 Ry

     iteration # 15     ecut=    40.00 Ry     beta= 0.70
     Davidson diagonalization with overlap
     ethr =  1.64E-10,  avg # of iterations =  2.7

     total cpu time spent up to now is       22.5 secs

     total energy              =    -371.07416156 Ry
     estimated scf accuracy    <          2.3E-09 Ry

     iteration # 16     ecut=    40.00 Ry     beta= 0.70
     Davidson diagonalization with overlap
     ethr =  4.37E-12,  avg # of iterations =  5.3

     total cpu time spent up to now is       22.7 secs

     total energy              =    -371.07416156 Ry
     estimated scf accuracy    <       0.00000002 Ry

     iteration # 17     ecut=    40.00 Ry     beta= 0.70
     Davidson diagonalization with overlap
     ethr =  4.37E-12,  avg # of iterations =  4.7

     total cpu time spent up to now is       22.9 secs

     total energy              =    -371.07416156 Ry
     estimated scf accuracy    <          1.6E-09 Ry

     iteration # 18     ecut=    40.00 Ry     beta= 0.70
     Davidson diagonalization with overlap
     ethr =  3.14E-12,  avg # of iterations =  1.7

     total cpu time spent up to now is       23.0 secs

     total energy              =    -371.07416156 Ry
     estimated scf accuracy    <          4.8E-10 Ry

     iteration # 19     ecut=    40.00 Ry     beta= 0.70
     Davidson diagonalization with overlap
     ethr =  9.19E-13,  avg # of iterations =  2.9

     total cpu time spent up to now is       23.2 secs

     total energy              =    -371.07416156 Ry
     estimated scf accuracy    <          1.5E-10 Ry

     iteration # 20     ecut=    40.00 Ry     beta= 0.70
     Davidson diagonalization with overlap
     ethr =  2.88E-13,  avg # of iterations =  2.1

     total cpu time spent up to now is       23.3 secs

     End of self-consistent calculation

          k = 0.0000 0.0000 0.0000 (  3339 PWs)   bands (ev):

   -52.1278 -52.1278 -26.2770 -26.2770 -26.0636 -26.0636 -26.0636 -26.0636
    -5.3987  -5.3225  -4.1369  -4.0054   2.8935   3.3274   6.1502   6.1502
     6.1531   6.1531   6.3744   7.2554   7.2554   7.2655   7.2655   7.5726
     8.3856   9.0863  11.5089  11.5089  11.5167  11.5167  11.7204

          k = 0.1675 0.0967 0.0000 (  3393 PWs)   bands (ev):

   -52.1182 -52.1182 -26.2581 -26.2581 -26.1601 -26.1601 -26.0856 -26.0856
    -5.0017  -4.9280  -3.9641  -3.8490   3.3182   3.7340   5.3805   5.4024
     5.5836   6.0035   6.5565   6.5648   6.7015   6.7157   7.4274   7.9495
     8.2744   8.5706  10.8682  11.2536  11.2759  11.3284  11.3889

          k = 0.3350 0.1934 0.0000 (  3412 PWs)   bands (ev):

   -52.0990 -52.0990 -26.3487 -26.3487 -26.2199 -26.2199 -26.1294 -26.1294
    -4.0736  -4.0158  -3.5662  -3.4956   3.4255   3.5697   4.4580   4.6233
     4.7140   4.9607   5.8998   5.9179   6.9409   7.2396   7.3861   7.4160
     7.6983   7.8081  10.8609  10.9338  10.9789  11.3017  11.9236

          k =-0.5025-0.2901-0.0000 (  3384 PWs)   bands (ev):

   -52.0894 -52.0894 -26.4409 -26.4409 -26.2007 -26.2007 -26.1511 -26.1511
    -3.4916  -3.4627  -3.3244  -3.2977   2.9110   3.0079   3.8902   3.9712
     4.5432   4.7811   5.5801   5.5994   6.7916   6.8649   7.7616   7.8136
     8.0765   8.1021  10.9903  11.0039  11.4372  11.5658  12.3716

          k = 0.3350-0.0000 0.0000 (  3376 PWs)   bands (ev):

   -52.1039 -52.1039 -26.2842 -26.2842 -26.2295 -26.2295 -26.1368 -26.1368
    -4.3309  -4.2664  -3.6712  -3.5861   3.6854   3.9263   4.8672   4.9854
     4.9885   5.1225   5.4351   5.6780   6.7865   6.7898   7.5889   7.7853
     7.9355   7.9501  10.4202  10.8725  11.1417  11.2649  11.3684

          k = 0.5025 0.0967 0.0000 (  3423 PWs)   bands (ev):

   -52.0894 -52.0894 -26.3938 -26.3938 -26.2008 -26.2008 -26.2001 -26.2001
    -3.5161  -3.4809  -3.3131  -3.2762   3.3785   3.4696   3.8341   3.8537
     4.8078   5.0021   5.4189   5.6194   6.3433   6.4231   6.9498   7.0597
     8.2215   8.2677  10.8320  11.0580  11.4774  11.6171  11.8880

          k = 0.6700-0.0000 0.0000 (  3450 PWs)   bands (ev):

   -52.0846 -52.0846 -26.3478 -26.3478 -26.3049 -26.3049 -26.1912 -26.1912
    -3.2082  -3.2082  -3.1487  -3.1487   3.3044   3.3522   4.1350   4.1350
     4.6278   4.7092   5.1862   5.1862   5.8197   5.8197   6.5791   6.5791
     8.6927   8.7519  10.4390  10.4390  11.5362  11.9882  12.2477

     the Fermi energy is     9.7218 ev

!    total energy              =    -371.07416156 Ry
     estimated scf accuracy    <          7.1E-11 Ry
     smearing contrib. (-TS)   =      -0.00000000 Ry
     internal energy E=F+TS    =    -371.07416156 Ry

     The total energy is F=E-TS. E is the sum of the following terms:
     one-electron contribution =    -241.08493404 Ry
     hartree contribution      =     139.00968072 Ry
     xc contribution           =     -65.13616578 Ry
[...]

          k = 0.5013 0.0965 0.0000 (  3423 PWs)   bands (ev):

   -53.1986 -53.1986 -27.4990 -27.4990 -27.3095 -27.3095 -27.3055 -27.3055
    -4.6110  -4.5998  -4.3922  -4.3802   2.3244   2.3594   2.7580   2.7659
     3.7731   3.8524   4.3951   4.4795   5.2698   5.2975   5.9073   5.9464
     7.1283   7.1479   9.7772   9.8977  10.3743  10.4586  10.8783

          k = 0.6684-0.0000 0.0000 (  3450 PWs)   bands (ev):

   -53.1939 -53.1939 -27.4543 -27.4543 -27.4117 -27.4117 -27.2961 -27.2961
    -4.3203  -4.3203  -4.2443  -4.2443   2.2356   2.2521   3.0600   3.0600
     3.5666   3.5961   4.0846   4.0846   4.7647   4.7647   5.4865   5.4865
     7.6043   7.6288   9.3020   9.3020  10.5791  10.8009  11.1530

     the Fermi energy is     8.5809 ev

!    total energy              =    -371.07511554 Ry
     estimated scf accuracy    <          5.8E-11 Ry
     smearing contrib. (-TS)   =      -0.00000000 Ry
     internal energy E=F+TS    =    -371.07511554 Ry

     The total energy is F=E-TS. E is the sum of the following terms:
     one-electron contribution =    -301.88454307 Ry
     hartree contribution      =     167.29990753 Ry
     xc contribution           =     -65.11963539 Ry
     ewald contribution        =    -171.37084462 Ry

     convergence has been achieved in  28 iterations

     Forces acting on atoms (cartesian axes, Ry/au):

     atom    1 type  1   force =     0.00000000    0.00000000   -0.00001939
     atom    2 type  1   force =     0.00000000   -0.00000000    0.00001939
     atom    3 type  2   force =     0.00000000    0.00000000    0.00018284
     atom    4 type  2   force =    -0.00000000   -0.00000000   -0.00018284
     atom    5 type  2   force =     0.00000000    0.00000000   -0.00020219
     atom    6 type  2   force =    -0.00000000   -0.00000000    0.00020219

     Total force =     0.000386     Total SCF correction =     0.000019


     Computing stress (Cartesian axis) and pressure

          total   stress  (Ry/bohr**3)                   (kbar)     P=       -0.05
   0.00000094  -0.00000000  -0.00000000            0.14       -0.00       -0.00
  -0.00000000   0.00000094  -0.00000000           -0.00        0.14       -0.00
  -0.00000000   0.00000000  -0.00000295           -0.00        0.00       -0.43


     bfgs converged in  13 scf cycles and  12 bfgs steps
     (criteria: energy <  1.0E-04 Ry, force <  1.0E-03Ry/Bohr, cell <  5.0E-01kbar)

     End of BFGS Geometry Optimization

     Final enthalpy =    -371.0751155442 Ry

     File ./MoS2.bfgs deleted, as requested
Begin final coordinates
     new unit-cell volume =    864.79086 a.u.^3 (   128.14878 Ang^3 )
     density =      4.14834 g/cm^3

CELL_PARAMETERS (angstrom)
   1.591925686  -2.757296167   0.000000000
   1.591925686   2.757296167  -0.000000000
  -0.000000000  -0.000000000  14.597493422

ATOMIC_POSITIONS (angstrom)
Mo            1.0612837843        0.9190987224        3.6496700667
Mo            2.6532094608        1.8381974447       10.9478233554
S             1.0612837843        0.9190987224        9.3842673102
S             2.6532094608        1.8381974447        5.2132261119
S             1.0612837843        0.9190987224       12.5114136815
S             2.6532094608        1.8381974447        2.0860797406
End final coordinates



     Writing output data file ./MoS2.save/

     Final scf calculation at the relaxed structure.
     The G-vectors are recalculated for the final unit cell
     Results may differ from those at the preceding step.
 
     Parallelization info
     --------------------
     sticks:   dense  smooth     PW     G-vecs:    dense   smooth      PW
     Min          50      19      6                 5836     1467     250
     Max          51      21      7                 5851     1480     269
     Sum        1003     397    121               116821    29511    5089
 


     bravais-lattice index     =            0
     lattice parameter (alat)  =       6.0325  a.u.
     unit-cell volume          =     864.7909 (a.u.)^3
     number of atoms/cell      =            6
     number of atomic types    =            2
     number of electrons       =        52.00
     number of Kohn-Sham states=           31
     kinetic-energy cutoff     =      40.0000  Ry
     charge density cutoff     =     400.0000  Ry
     convergence threshold     =      1.0E-10
     mixing beta               =       0.7000
     number of iterations used =            8  plain     mixing
     Exchange-correlation=  SLA  PW   PBX  PBC
                           (   1   4   3   4   0   0   0)

     celldm(1)=   6.032455  celldm(2)=   0.000000  celldm(3)=   0.000000
     celldm(4)=   0.000000  celldm(5)=   0.000000  celldm(6)=   0.000000

     crystal axes: (cart. coord. in units of alat)
               a(1) = (   0.498686  -0.863750   0.000000 )  
               a(2) = (   0.498686   0.863750  -0.000000 )  
               a(3) = (  -0.000000  -0.000000   4.572809 )  

     reciprocal axes: (cart. coord. in units 2 pi/alat)
               b(1) = (  1.002634 -0.578871  0.000000 )  
               b(2) = (  1.002634  0.578871  0.000000 )  
               b(3) = ( -0.000000  0.000000  0.218684 )  


     PseudoPot. # 1 for Mo read from file:
     /home/rdm323/Workshop/ECMS_Course/MoS2/pseudoPotentials/Mo_ONCV_PBE-1.0.oncvpsp.upf
     MD5 check sum: 1b5d28e075c9ccadda658a603575cd1f
     Pseudo is Norm-conserving, Zval = 14.0
     Generated using ONCVPSP code by D. R. Hamann
     Using radial grid of 1526 points,  6 beta functions with: 
                l(1) =   0
                l(2) =   0
                l(3) =   1
                l(4) =   1
                l(5) =   2
                l(6) =   2

     PseudoPot. # 2 for S  read from file:
     /home/rdm323/Workshop/ECMS_Course/MoS2/pseudoPotentials/s_pbe_v1.4.uspp.F.UPF
     MD5 check sum: 88d86576ff6df21479756cfb9bdac1df
     Pseudo is Ultrasoft + core correction, Zval =  6.0
     Generated by new atomic code, or converted to UPF format
     Using radial grid of  907 points,  6 beta functions with: 
                l(1) =   0
                l(2) =   0
                l(3) =   1
                l(4) =   1
                l(5) =   2
                l(6) =   2
     Q(r) pseudized with  8 coefficients,  rinner =    1.300   1.300   1.300
                                                       1.300   1.300

     atomic species   valence    mass     pseudopotential
        Mo            14.00    95.95000     Mo( 1.00)
        S              6.00    32.06000     S ( 1.00)

     12 Sym. Ops., with inversion, found (10 have fractional translation)



   Cartesian axes

     site n.     atom                  positions (alat units)
         1           Mo  tau(   1) = (   0.3324576   0.2879167   1.1432951  )
         2           Mo  tau(   2) = (   0.8311440   0.5758335   3.4295136  )
         3           S   tau(   3) = (   0.3324576   0.2879167   2.9397143  )
         4           S   tau(   4) = (   0.8311440   0.5758335   1.6330945  )
         5           S   tau(   5) = (   0.3324576   0.2879167   3.9193237  )
         6           S   tau(   6) = (   0.8311440   0.5758335   0.6534850  )

     number of k points=     7  Gaussian smearing, width (Ry)=  0.0100
                       cart. coord. in units 2pi/alat
        k(    1) = (   0.0000000   0.0000000   0.0000000), wk =   0.0555556
        k(    2) = (   0.1671057   0.0964785   0.0000000), wk =   0.3333333
        k(    3) = (   0.3342114   0.1929570   0.0000000), wk =   0.3333333
        k(    4) = (  -0.5013170  -0.2894355  -0.0000000), wk =   0.1666667
        k(    5) = (   0.3342114  -0.0000000   0.0000000), wk =   0.3333333
        k(    6) = (   0.5013170   0.0964785   0.0000000), wk =   0.6666667
        k(    7) = (   0.6684227  -0.0000000   0.0000000), wk =   0.1111111

     Dense  grid:   116821 G-vectors     FFT dimensions: (  48,  48, 180)

     Smooth grid:    29511 G-vectors     FFT dimensions: (  30,  30, 120)

     Estimated max dynamical RAM per process >      29.41 MB

     Estimated total dynamical RAM >     588.23 MB

     Initial potential from superposition of free atoms

     starting charge   51.99788, renormalised to   52.00000
     Starting wfcs are   36 randomized atomic wfcs

     total cpu time spent up to now is       51.8 secs

     Self-consistent Calculation

     iteration #  1     ecut=    40.00 Ry     beta= 0.70
     Davidson diagonalization with overlap
     c_bands:  3 eigenvalues not converged
     c_bands:  1 eigenvalues not converged
     c_bands:  1 eigenvalues not converged
     c_bands:  2 eigenvalues not converged
     ethr =  1.00E-06,  avg # of iterations = 18.0

     total cpu time spent up to now is       52.3 secs

     total energy              =    -370.98276723 Ry
     estimated scf accuracy    <       0.23683511 Ry

     iteration #  2     ecut=    40.00 Ry     beta= 0.70
     Davidson diagonalization with overlap
     ethr =  4.55E-04,  avg # of iterations =  3.9

     total cpu time spent up to now is       52.5 secs

     total energy              =    -370.93843031 Ry
     estimated scf accuracy    <       0.58234365 Ry

     iteration #  3     ecut=    40.00 Ry     beta= 0.70
     Davidson diagonalization with overlap
     ethr =  4.55E-04,  avg # of iterations =  4.7

     total cpu time spent up to now is       52.6 secs

     total energy              =    -371.04484559 Ry
     estimated scf accuracy    <       0.20949196 Ry

     iteration #  4     ecut=    40.00 Ry     beta= 0.70
     Davidson diagonalization with overlap
     ethr =  4.03E-04,  avg # of iterations =  2.1

     total cpu time spent up to now is       52.8 secs

     total energy              =    -371.07336612 Ry
     estimated scf accuracy    <       0.00128989 Ry

     iteration #  5     ecut=    40.00 Ry     beta= 0.70
     Davidson diagonalization with overlap
     ethr =  2.48E-06,  avg # of iterations =  6.3

     total cpu time spent up to now is       53.0 secs

     total energy              =    -371.07529540 Ry
     estimated scf accuracy    <       0.00449687 Ry

     iteration #  6     ecut=    40.00 Ry     beta= 0.70
     Davidson diagonalization with overlap
     ethr =  2.48E-06,  avg # of iterations =  3.0

     total cpu time spent up to now is       53.2 secs

     total energy              =    -371.07509244 Ry
     estimated scf accuracy    <       0.00273837 Ry

     iteration #  7     ecut=    40.00 Ry     beta= 0.70
     Davidson diagonalization with overlap
     ethr =  2.48E-06,  avg # of iterations =  2.0

     total cpu time spent up to now is       53.3 secs

     total energy              =    -371.07516055 Ry
     estimated scf accuracy    <       0.00035182 Ry

     iteration #  8     ecut=    40.00 Ry     beta= 0.70
     Davidson diagonalization with overlap
     ethr =  6.77E-07,  avg # of iterations =  4.3

     total cpu time spent up to now is       53.5 secs

     total energy              =    -371.07523871 Ry
     estimated scf accuracy    <       0.00002210 Ry

     iteration #  9     ecut=    40.00 Ry     beta= 0.70
     Davidson diagonalization with overlap
     ethr =  4.25E-08,  avg # of iterations =  2.3

     total cpu time spent up to now is       53.6 secs

     total energy              =    -371.07524193 Ry
     estimated scf accuracy    <       0.00000168 Ry

     iteration # 10     ecut=    40.00 Ry     beta= 0.70
     Davidson diagonalization with overlap
     ethr =  3.23E-09,  avg # of iterations =  4.9

     total cpu time spent up to now is       53.8 secs

     total energy              =    -371.07524248 Ry
     estimated scf accuracy    <       0.00000072 Ry

     iteration # 11     ecut=    40.00 Ry     beta= 0.70
     Davidson diagonalization with overlap
     ethr =  1.38E-09,  avg # of iterations =  2.0

     total cpu time spent up to now is       53.9 secs

     total energy              =    -371.07524254 Ry
     estimated scf accuracy    <       0.00000004 Ry

     iteration # 12     ecut=    40.00 Ry     beta= 0.70
     Davidson diagonalization with overlap
     ethr =  7.98E-11,  avg # of iterations =  5.3

     total cpu time spent up to now is       54.1 secs

     total energy              =    -371.07524255 Ry
     estimated scf accuracy    <       0.00000007 Ry

     iteration # 13     ecut=    40.00 Ry     beta= 0.70
     Davidson diagonalization with overlap
     ethr =  7.98E-11,  avg # of iterations =  2.3

     total cpu time spent up to now is       54.3 secs

     total energy              =    -371.07524256 Ry
     estimated scf accuracy    <          4.6E-09 Ry

     iteration # 14     ecut=    40.00 Ry     beta= 0.70
     Davidson diagonalization with overlap
     ethr =  8.82E-12,  avg # of iterations =  5.0

     total cpu time spent up to now is       54.4 secs

     total energy              =    -371.07524256 Ry
     estimated scf accuracy    <          2.3E-09 Ry

     iteration # 15     ecut=    40.00 Ry     beta= 0.70
     Davidson diagonalization with overlap
     ethr =  4.35E-12,  avg # of iterations =  1.6

     total cpu time spent up to now is       54.6 secs

     total energy              =    -371.07524256 Ry
     estimated scf accuracy    <          3.8E-10 Ry

     iteration # 16     ecut=    40.00 Ry     beta= 0.70
     Davidson diagonalization with overlap
     ethr =  7.26E-13,  avg # of iterations =  4.4

     total cpu time spent up to now is       54.7 secs

     End of self-consistent calculation

          k = 0.0000 0.0000 0.0000 (  3631 PWs)   bands (ev):

   -53.2352 -53.2352 -27.3798 -27.3798 -27.1758 -27.1758 -27.1758 -27.1758
    -6.4563  -6.4312  -5.1656  -5.1201   1.9331   2.1314   5.0258   5.0258
     5.0266   5.0266   5.5486   6.1333   6.1333   6.1360   6.1360   6.2102
     7.4247   7.8603  10.3956  10.3956  10.3980  10.3980  10.6401

          k = 0.1671 0.0965 0.0000 (  3669 PWs)   bands (ev):

   -53.2259 -53.2259 -27.3612 -27.3612 -27.2700 -27.2700 -27.1973 -27.1973
    -6.0640  -6.0398  -5.0019  -4.9625   2.3485   2.5372   4.2710   4.2801
     4.6199   4.8268   5.4310   5.4334   5.5859   5.5899   6.4135   6.7253
     7.2508   7.4362   9.8045  10.0993  10.1512  10.2447  10.2646

          k = 0.3342 0.1930 0.0000 (  3690 PWs)   bands (ev):

   -53.2073 -53.2073 -27.4544 -27.4544 -27.3240 -27.3240 -27.2400 -27.2400
    -5.1523  -5.1336  -4.6280  -4.6045   2.3803   2.4393   3.4322   3.5047
     3.6885   3.7957   4.7916   4.7969   5.9319   6.0987   6.2667   6.2758
     6.6401   6.6951   9.8342   9.8345   9.8499  10.1118  10.8784

          k =-0.5013-0.2894-0.0000 (  3696 PWs)   bands (ev):

   -53.1980 -53.1980 -27.5446 -27.5446 -27.3052 -27.3052 -27.2613 -27.2613
    -4.5893  -4.5803  -4.4070  -4.3985   1.8633   1.8987   2.8481   2.8799
     3.5271   3.6234   4.4746   4.4803   5.7514   5.7756   6.6547   6.6709
     6.9986   7.0046   9.8649   9.8697  10.3466  10.4121  11.3622

          k = 0.3342-0.0000 0.0000 (  3682 PWs)   bands (ev):

   -53.2119 -53.2119 -27.3914 -27.3914 -27.3333 -27.3333 -27.2473 -27.2473
    -5.4039  -5.3829  -4.7256  -4.6970   2.6667   2.7710   3.7908   3.8532
     3.9454   4.0020   4.4029   4.5185   5.6717   5.6729   6.5269   6.6596
     6.8408   6.8551   9.4230   9.7005  10.0525  10.1909  10.2028

          k = 0.5013 0.0965 0.0000 (  3714 PWs)   bands (ev):

   -53.1980 -53.1980 -27.4986 -27.4986 -27.3091 -27.3091 -27.3053 -27.3053
    -4.6110  -4.5998  -4.3924  -4.3803   2.3244   2.3594   2.7579   2.7658
     3.7731   3.8524   4.3951   4.4794   5.2698   5.2975   5.9073   5.9464
     7.1283   7.1479   9.7771   9.8977  10.3742  10.4586  10.8782

          k = 0.6684-0.0000 0.0000 (  3732 PWs)   bands (ev):

   -53.1933 -53.1933 -27.4539 -27.4539 -27.4114 -27.4114 -27.2960 -27.2960
    -4.3203  -4.3203  -4.2444  -4.2444   2.2355   2.2520   3.0599   3.0599
     3.5666   3.5961   4.0846   4.0846   4.7647   4.7647   5.4864   5.4864
     7.6044   7.6289   9.3019   9.3019  10.5789  10.8007  11.1530

     the Fermi energy is     8.5808 ev

!    total energy              =    -371.07524256 Ry
     estimated scf accuracy    <          2.0E-11 Ry
     smearing contrib. (-TS)   =      -0.00000000 Ry
     internal energy E=F+TS    =    -371.07524256 Ry

     The total energy is F=E-TS. E is the sum of the following terms:
     one-electron contribution =    -301.88501724 Ry
     hartree contribution      =     167.30028772 Ry
     xc contribution           =     -65.11966841 Ry
     ewald contribution        =    -171.37084462 Ry

     convergence has been achieved in  16 iterations

     Forces acting on atoms (cartesian axes, Ry/au):

     atom    1 type  1   force =    -0.00000000   -0.00000000   -0.00002125
     atom    2 type  1   force =    -0.00000000    0.00000000    0.00002125
     atom    3 type  2   force =    -0.00000000    0.00000000    0.00020007
     atom    4 type  2   force =     0.00000000   -0.00000000   -0.00020007
     atom    5 type  2   force =    -0.00000000   -0.00000000   -0.00021979
     atom    6 type  2   force =     0.00000000    0.00000000    0.00021979

     Total force =     0.000421     Total SCF correction =     0.000035


     Computing stress (Cartesian axis) and pressure

          total   stress  (Ry/bohr**3)                   (kbar)     P=        0.09
   0.00000105  -0.00000000   0.00000000            0.15       -0.00        0.00
  -0.00000000   0.00000105   0.00000000           -0.00        0.15        0.00
   0.00000000  -0.00000000  -0.00000019            0.00       -0.00       -0.03


     Writing output data file ./MoS2.save/
 
     init_run     :      0.33s CPU      0.35s WALL (       2 calls)
     electrons    :     43.40s CPU     47.95s WALL (      14 calls)
     update_pot   :      0.98s CPU      0.99s WALL (      12 calls)
     forces       :      0.87s CPU      0.92s WALL (      14 calls)
     stress       :      1.91s CPU      2.00s WALL (      14 calls)

     Called by init_run:
     wfcinit      :      0.08s CPU      0.09s WALL (       2 calls)
     potinit      :      0.06s CPU      0.06s WALL (       2 calls)
     hinit0       :      0.12s CPU      0.12s WALL (       2 calls)

     Called by electrons:
     c_bands      :     31.88s CPU     33.19s WALL (     293 calls)
     sum_band     :      7.38s CPU      8.26s WALL (     293 calls)
     v_of_rho     :      1.67s CPU      1.68s WALL (     305 calls)
     newd         :      2.16s CPU      2.78s WALL (     305 calls)
     mix_rho      :      0.28s CPU      0.29s WALL (     293 calls)

     Called by c_bands:
     init_us_2    :      0.23s CPU      0.25s WALL (    4312 calls)
     cegterg      :     30.06s CPU     31.30s WALL (    2051 calls)

     Called by *egterg:
     cdiaghg      :      6.25s CPU      6.63s WALL (    8606 calls)
     h_psi        :     21.18s CPU     21.96s WALL (    8718 calls)
     s_psi        :      0.44s CPU      0.46s WALL (    8718 calls)
     g_psi        :      0.05s CPU      0.05s WALL (    6653 calls)

     Called by h_psi:
     h_psi:calbec :      1.11s CPU      1.16s WALL (    8718 calls)
     vloc_psi     :     19.49s CPU     20.20s WALL (    8718 calls)
     add_vuspsi   :      0.51s CPU      0.53s WALL (    8718 calls)

     General routines
     calbec       :      1.54s CPU      1.61s WALL (   11259 calls)
     fft          :      1.28s CPU      1.29s WALL (    4301 calls)
     ffts         :      0.05s CPU      0.06s WALL (     598 calls)
     fftw         :     22.34s CPU     23.19s WALL (  391825 calls)
     interpolate  :      0.12s CPU      0.12s WALL (     305 calls)
 
     Parallel routines
     fft_scatt_xy :      1.59s CPU      1.65s WALL (  396724 calls)
     fft_scatt_yz :      7.99s CPU      8.30s WALL (  396724 calls)
 
     PWSCF        :     47.75s CPU     55.30s WALL

 
   This run was terminated on:  13:31:40  17Dec2024            

=------------------------------------------------------------------------------=
   JOB DONE.
=------------------------------------------------------------------------------=
